  30  30   0   0
  0.1037211E+02  0.5106831E-09  0.5106831E-09  0.1377701E-08  0.5000000E-15
  1.000000000000000E-004
  CAR 
 unknown system                          
     27.79729109    -17.93043897  301      5.19980634      1.00000000
    -17.930  0.0000E+00  0.0000E+00
    -17.778  0.0000E+00  0.0000E+00
    -17.626  0.0000E+00  0.0000E+00
    -17.473  0.0000E+00  0.0000E+00
    -17.321  0.0000E+00  0.0000E+00
    -17.168  0.0000E+00  0.0000E+00
    -17.016  0.0000E+00  0.0000E+00
    -16.863  0.0000E+00  0.0000E+00
    -16.711  0.0000E+00  0.0000E+00
    -16.559  0.0000E+00  0.0000E+00
    -16.406  0.0000E+00  0.0000E+00
    -16.254  0.0000E+00  0.0000E+00
    -16.101  0.1401E-12  0.2136E-13
    -15.949  0.5401E-03  0.8232E-04
    -15.796  0.8311E+00  0.1268E+00
    -15.644  0.2949E+01  0.5763E+00
    -15.492  0.5362E+01  0.1394E+01
    -15.339  0.7494E+01  0.2536E+01
    -15.187  0.1377E+02  0.4635E+01
    -15.034  0.1363E+02  0.6712E+01
    -14.882  0.2184E+02  0.1004E+02
    -14.729  0.5628E+02  0.1862E+02
    -14.577  0.6858E+02  0.2907E+02
    -14.425  0.4433E+02  0.3583E+02
    -14.272  0.1110E+01  0.3600E+02
    -14.120  0.4508E-05  0.3600E+02
    -13.967  0.0000E+00  0.3600E+02
    -13.815  0.0000E+00  0.3600E+02
    -13.663  0.0000E+00  0.3600E+02
    -13.510  0.0000E+00  0.3600E+02
    -13.358  0.0000E+00  0.3600E+02
    -13.205  0.0000E+00  0.3600E+02
    -13.053  0.0000E+00  0.3600E+02
    -12.900  0.0000E+00  0.3600E+02
    -12.748  0.0000E+00  0.3600E+02
    -12.596  0.0000E+00  0.3600E+02
    -12.443  0.0000E+00  0.3600E+02
    -12.291  0.0000E+00  0.3600E+02
    -12.138  0.0000E+00  0.3600E+02
    -11.986  0.0000E+00  0.3600E+02
    -11.833  0.0000E+00  0.3600E+02
    -11.681  0.0000E+00  0.3600E+02
    -11.529  0.0000E+00  0.3600E+02
    -11.376  0.0000E+00  0.3600E+02
    -11.224  0.0000E+00  0.3600E+02
    -11.071  0.0000E+00  0.3600E+02
    -10.919  0.0000E+00  0.3600E+02
    -10.766  0.0000E+00  0.3600E+02
    -10.614  0.0000E+00  0.3600E+02
    -10.462  0.0000E+00  0.3600E+02
    -10.309  0.0000E+00  0.3600E+02
    -10.157  0.0000E+00  0.3600E+02
    -10.004  0.0000E+00  0.3600E+02
     -9.852  0.0000E+00  0.3600E+02
     -9.699  0.0000E+00  0.3600E+02
     -9.547  0.0000E+00  0.3600E+02
     -9.395  0.0000E+00  0.3600E+02
     -9.242  0.0000E+00  0.3600E+02
     -9.090  0.0000E+00  0.3600E+02
     -8.937  0.0000E+00  0.3600E+02
     -8.785  0.0000E+00  0.3600E+02
     -8.632  0.0000E+00  0.3600E+02
     -8.480  0.0000E+00  0.3600E+02
     -8.328  0.0000E+00  0.3600E+02
     -8.175  0.0000E+00  0.3600E+02
     -8.023  0.0000E+00  0.3600E+02
     -7.870  0.0000E+00  0.3600E+02
     -7.718  0.0000E+00  0.3600E+02
     -7.565  0.0000E+00  0.3600E+02
     -7.413  0.0000E+00  0.3600E+02
     -7.261  0.0000E+00  0.3600E+02
     -7.108  0.0000E+00  0.3600E+02
     -6.956  0.0000E+00  0.3600E+02
     -6.803  0.0000E+00  0.3600E+02
     -6.651  0.0000E+00  0.3600E+02
     -6.499  0.0000E+00  0.3600E+02
     -6.346  0.0000E+00  0.3600E+02
     -6.194  0.0000E+00  0.3600E+02
     -6.041  0.0000E+00  0.3600E+02
     -5.889  0.0000E+00  0.3600E+02
     -5.736  0.0000E+00  0.3600E+02
     -5.584  0.0000E+00  0.3600E+02
     -5.432  0.0000E+00  0.3600E+02
     -5.279  0.0000E+00  0.3600E+02
     -5.127  0.0000E+00  0.3600E+02
     -4.974  0.0000E+00  0.3600E+02
     -4.822  0.0000E+00  0.3600E+02
     -4.669  0.0000E+00  0.3600E+02
     -4.517  0.0000E+00  0.3600E+02
     -4.365  0.0000E+00  0.3600E+02
     -4.212  0.0000E+00  0.3600E+02
     -4.060  0.0000E+00  0.3600E+02
     -3.907  0.0000E+00  0.3600E+02
     -3.755  0.0000E+00  0.3600E+02
     -3.602  0.0000E+00  0.3600E+02
     -3.450  0.0000E+00  0.3600E+02
     -3.298  0.0000E+00  0.3600E+02
     -3.145  0.9942E-10  0.3600E+02
     -2.993  0.7851E-02  0.3600E+02
     -2.840  0.1786E+01  0.3627E+02
     -2.688  0.9896E+01  0.3778E+02
     -2.535  0.2586E+02  0.4172E+02
     -2.383  0.3528E+02  0.4710E+02
     -2.231  0.2524E+02  0.5095E+02
     -2.078  0.2223E+02  0.5434E+02
     -1.926  0.3032E+02  0.5896E+02
     -1.773  0.2945E+02  0.6345E+02
     -1.621  0.2975E+02  0.6798E+02
     -1.468  0.2276E+02  0.7145E+02
     -1.316  0.3030E+02  0.7607E+02
     -1.164  0.3267E+02  0.8105E+02
     -1.011  0.4196E+02  0.8745E+02
     -0.859  0.3062E+02  0.9211E+02
     -0.706  0.2604E+02  0.9608E+02
     -0.554  0.2160E+02  0.9937E+02
     -0.401  0.2112E+02  0.1026E+03
     -0.249  0.2058E+02  0.1057E+03
     -0.097  0.1519E+02  0.1080E+03
      0.056  0.2606E+02  0.1120E+03
      0.208  0.2619E+02  0.1160E+03
      0.361  0.3272E+02  0.1210E+03
      0.513  0.3169E+02  0.1258E+03
      0.666  0.2935E+02  0.1303E+03
      0.818  0.2414E+02  0.1340E+03
      0.970  0.2312E+02  0.1375E+03
      1.123  0.3346E+02  0.1426E+03
      1.275  0.8242E+01  0.1439E+03
      1.428  0.9058E+00  0.1440E+03
      1.580  0.4486E-04  0.1440E+03
      1.732  0.0000E+00  0.1440E+03
      1.885  0.0000E+00  0.1440E+03
      2.037  0.0000E+00  0.1440E+03
      2.190  0.0000E+00  0.1440E+03
      2.342  0.0000E+00  0.1440E+03
      2.495  0.0000E+00  0.1440E+03
      2.647  0.0000E+00  0.1440E+03
      2.799  0.0000E+00  0.1440E+03
      2.952  0.0000E+00  0.1440E+03
      3.104  0.0000E+00  0.1440E+03
      3.257  0.0000E+00  0.1440E+03
      3.409  0.0000E+00  0.1440E+03
      3.562  0.0000E+00  0.1440E+03
      3.714  0.0000E+00  0.1440E+03
      3.866  0.0000E+00  0.1440E+03
      4.019  0.1279E-13  0.1440E+03
      4.171  0.6350E-03  0.1440E+03
      4.324  0.3059E+01  0.1445E+03
      4.476  0.2114E+02  0.1477E+03
      4.629  0.2275E+02  0.1512E+03
      4.781  0.1312E+02  0.1532E+03
      4.933  0.8900E+01  0.1545E+03
      5.086  0.4504E+01  0.1552E+03
      5.238  0.8851E+01  0.1565E+03
      5.391  0.3223E+02  0.1615E+03
      5.543  0.3194E+02  0.1663E+03
      5.696  0.2636E+02  0.1703E+03
      5.848  0.4882E+02  0.1778E+03
      6.000  0.3173E+02  0.1826E+03
      6.153  0.3165E+02  0.1874E+03
      6.305  0.6107E+02  0.1968E+03
      6.458  0.4796E+02  0.2041E+03
      6.610  0.9022E+01  0.2054E+03
      6.763  0.2092E+02  0.2086E+03
      6.915  0.2372E+02  0.2122E+03
      7.067  0.1493E+02  0.2145E+03
      7.220  0.7153E+01  0.2156E+03
      7.372  0.2518E+01  0.2160E+03
      7.525  0.4262E+00  0.2161E+03
      7.677  0.1739E+02  0.2187E+03
      7.830  0.3382E+02  0.2239E+03
      7.982  0.4077E+02  0.2301E+03
      8.134  0.2787E+02  0.2343E+03
      8.287  0.2995E+02  0.2389E+03
      8.439  0.2228E+02  0.2423E+03
      8.592  0.2486E+02  0.2461E+03
      8.744  0.2470E+02  0.2498E+03
      8.896  0.2647E+02  0.2539E+03
      9.049  0.3148E+02  0.2587E+03
      9.201  0.2157E+02  0.2620E+03
      9.354  0.1335E+02  0.2640E+03
      9.506  0.1440E+01  0.2642E+03
      9.659  0.8764E+00  0.2644E+03
      9.811  0.1077E+01  0.2645E+03
      9.963  0.7965E+00  0.2646E+03
     10.116  0.2513E+00  0.2647E+03
     10.268  0.2628E+01  0.2651E+03
     10.421  0.1009E+01  0.2652E+03
     10.573  0.9735E+00  0.2654E+03
     10.726  0.2730E+00  0.2654E+03
     10.878  0.3750E+01  0.2660E+03
     11.030  0.2224E+01  0.2663E+03
     11.183  0.1489E+01  0.2666E+03
     11.335  0.1906E+01  0.2669E+03
     11.488  0.3488E+01  0.2674E+03
     11.640  0.2703E+01  0.2678E+03
     11.793  0.4074E+01  0.2684E+03
     11.945  0.3612E+01  0.2690E+03
     12.097  0.4559E+01  0.2697E+03
     12.250  0.7548E+01  0.2708E+03
     12.402  0.4492E+01  0.2715E+03
     12.555  0.7476E+01  0.2726E+03
     12.707  0.4443E+01  0.2733E+03
     12.860  0.6527E+01  0.2743E+03
     13.012  0.6421E+01  0.2753E+03
     13.164  0.7956E+01  0.2765E+03
     13.317  0.7787E+01  0.2777E+03
     13.469  0.1050E+02  0.2793E+03
     13.622  0.9496E+01  0.2807E+03
     13.774  0.8613E+01  0.2820E+03
     13.927  0.3623E+01  0.2826E+03
     14.079  0.5007E+01  0.2834E+03
     14.231  0.1072E+02  0.2850E+03
     14.384  0.7423E+01  0.2861E+03
     14.536  0.3093E+01  0.2866E+03
     14.689  0.6057E+01  0.2875E+03
     14.841  0.6577E+01  0.2885E+03
     14.994  0.9402E+01  0.2900E+03
     15.146  0.3787E+01  0.2905E+03
     15.298  0.7145E+01  0.2916E+03
     15.451  0.8094E+01  0.2929E+03
     15.603  0.9912E+01  0.2944E+03
     15.756  0.8101E+01  0.2956E+03
     15.908  0.6665E+01  0.2966E+03
     16.061  0.9259E+01  0.2980E+03
     16.213  0.1089E+02  0.2997E+03
     16.365  0.1576E+02  0.3021E+03
     16.518  0.2133E+02  0.3053E+03
     16.670  0.1778E+02  0.3081E+03
     16.823  0.1042E+02  0.3096E+03
     16.975  0.1024E+02  0.3112E+03
     17.127  0.6182E+01  0.3121E+03
     17.280  0.4794E+01  0.3129E+03
     17.432  0.6911E+01  0.3139E+03
     17.585  0.1387E+02  0.3160E+03
     17.737  0.1404E+02  0.3182E+03
     17.890  0.1388E+02  0.3203E+03
     18.042  0.1485E+02  0.3226E+03
     18.194  0.2345E+02  0.3261E+03
     18.347  0.2080E+02  0.3293E+03
     18.499  0.2212E+02  0.3327E+03
     18.652  0.3064E+02  0.3374E+03
     18.804  0.2676E+02  0.3414E+03
     18.957  0.1962E+02  0.3444E+03
     19.109  0.1478E+02  0.3467E+03
     19.261  0.1200E+02  0.3485E+03
     19.414  0.8522E+01  0.3498E+03
     19.566  0.2915E+01  0.3502E+03
     19.719  0.1008E+02  0.3518E+03
     19.871  0.9063E+01  0.3532E+03
     20.024  0.1353E+02  0.3552E+03
     20.176  0.1190E+02  0.3570E+03
     20.328  0.9907E+01  0.3585E+03
     20.481  0.8585E+01  0.3599E+03
     20.633  0.8194E+01  0.3611E+03
     20.786  0.1227E+02  0.3630E+03
     20.938  0.2142E+02  0.3662E+03
     21.091  0.2014E+02  0.3693E+03
     21.243  0.1750E+02  0.3720E+03
     21.395  0.1521E+02  0.3743E+03
     21.548  0.1422E+02  0.3765E+03
     21.700  0.1409E+02  0.3786E+03
     21.853  0.8110E+01  0.3798E+03
     22.005  0.1632E+02  0.3823E+03
     22.158  0.1584E+02  0.3848E+03
     22.310  0.1683E+02  0.3873E+03
     22.462  0.1488E+02  0.3896E+03
     22.615  0.1591E+02  0.3920E+03
     22.767  0.1540E+02  0.3944E+03
     22.920  0.1718E+02  0.3970E+03
     23.072  0.9573E+01  0.3984E+03
     23.225  0.9592E+01  0.3999E+03
     23.377  0.1105E+02  0.4016E+03
     23.529  0.7440E+01  0.4027E+03
     23.682  0.5393E+01  0.4035E+03
     23.834  0.4824E+01  0.4043E+03
     23.987  0.7621E+01  0.4054E+03
     24.139  0.4532E+01  0.4061E+03
     24.291  0.7891E+01  0.4073E+03
     24.444  0.4485E+01  0.4080E+03
     24.596  0.5797E+01  0.4089E+03
     24.749  0.7408E+01  0.4100E+03
     24.901  0.1105E+02  0.4117E+03
     25.054  0.7687E+01  0.4129E+03
     25.206  0.5911E+01  0.4138E+03
     25.358  0.5662E+01  0.4146E+03
     25.511  0.4328E+01  0.4153E+03
     25.663  0.3265E+01  0.4158E+03
     25.816  0.1306E+01  0.4160E+03
     25.968  0.9225E-03  0.4160E+03
     26.121  0.0000E+00  0.4160E+03
     26.273  0.0000E+00  0.4160E+03
     26.425  0.0000E+00  0.4160E+03
     26.578  0.0000E+00  0.4160E+03
     26.730  0.0000E+00  0.4160E+03
     26.883  0.0000E+00  0.4160E+03
     27.035  0.0000E+00  0.4160E+03
     27.188  0.0000E+00  0.4160E+03
     27.340  0.0000E+00  0.4160E+03
     27.492  0.0000E+00  0.4160E+03
     27.645  0.0000E+00  0.4160E+03
     27.797  0.0000E+00  0.4160E+03
