   30   30    1    1
  0.1037211E+02  0.5106831E-09  0.5106831E-09  0.1377701E-08  0.5000000E-15
  1.000000000000000E-004
  CAR 
 unknown system                          
    156    162    208
 
  0.0000000E+00  0.0000000E+00  0.2500000E+00  0.6172840E-02
    1      -15.851906   1.000000
    2      -15.680960   1.000000
    3      -15.372274   1.000000
    4      -14.993307   1.000000
    5      -14.787303   1.000000
    6      -14.787303   1.000000
    7      -14.747241   1.000000
    8      -14.747241   1.000000
    9      -14.676630   1.000000
   10      -14.676630   1.000000
   11      -14.639319   1.000000
   12      -14.593256   1.000000
   13      -14.593256   1.000000
   14      -14.519471   1.000000
   15      -14.519470   1.000000
   16      -14.476606   1.000000
   17      -14.476606   1.000000
   18      -14.421642   1.000000
   19       -2.930288   1.000000
   20       -2.559392   1.000000
   21       -2.315749   1.000000
   22       -2.315749   1.000000
   23       -2.215854   1.000000
   24       -2.215854   1.000000
   25       -2.055422   1.000000
   26       -2.042183   1.000000
   27       -2.042183   1.000000
   28       -1.906630   1.000000
   29       -1.906630   1.000000
   30       -1.865120   1.000000
   31       -1.865120   1.000000
   32       -1.820934   1.000000
   33       -1.820934   1.000000
   34       -1.791971   1.000000
   35       -1.779085   1.000000
   36       -1.636091   1.000000
   37       -1.469506   1.000000
   38       -1.469505   1.000000
   39       -1.420365   1.000000
   40       -1.363930   1.000000
   41       -1.363929   1.000000
   42       -1.358768   1.000000
   43       -1.358767   1.000000
   44       -1.179976   1.000000
   45       -1.060307   1.000000
   46       -1.060307   1.000000
   47       -0.965794   1.000000
   48       -0.965794   1.000000
   49       -0.882642   1.000000
   50       -0.882642   1.000000
   51       -0.801884   1.000000
   52       -0.582638   1.000000
   53       -0.412807   1.000000
   54       -0.084013   1.000000
   55        0.237279   1.000000
   56        0.302632   1.000000
   57        0.302632   1.000000
   58        0.310879   1.000000
   59        0.370421   1.000000
   60        0.397749   1.000000
   61        0.397750   1.000000
   62        0.521448   1.000000
   63        0.521449   1.000000
   64        0.590083   1.000000
   65        0.771305   1.000000
   66        0.771306   1.000000
   67        0.795059   1.000000
   68        1.118296   1.000000
   69        1.118298   1.000000
   70        1.243719   1.000000
   71        1.243721   1.000000
   72        1.286999   1.000000
   73        4.409931   1.000000
   74        4.848352   1.000000
   75        5.098145   0.997982
   76        5.098145   0.997982
   77        5.299543   0.002394
   78        5.299543   0.002394
   79        5.425768   0.000000
   80        5.532598   0.000000
   81        5.532599   0.000000
   82        5.542229   0.000000
   83        5.542230   0.000000
   84        5.561760   0.000000
   85        5.594415   0.000000
   86        5.594416   0.000000
   87        5.603698   0.000000
   88        5.628598   0.000000
   89        5.628598   0.000000
   90        5.661884   0.000000
   91        5.687224   0.000000
   92        5.687225   0.000000
   93        5.765933   0.000000
   94        5.765935   0.000000
   95        5.798864   0.000000
   96        5.798864   0.000000
   97        6.142384   0.000000
   98        6.142384   0.000000
   99        6.392420   0.000000
  100        6.392420   0.000000
  101        6.403503   0.000000
  102        6.421884   0.000000
  103        6.421884   0.000000
  104        6.609563   0.000000
  105        6.631582   0.000000
  106        6.860552   0.000000
  107        7.056324   0.000000
  108        7.300512   0.000000
  109        7.740244   0.000000
  110        7.740244   0.000000
  111        7.794973   0.000000
  112        7.794974   0.000000
  113        7.831362   0.000000
  114        7.831362   0.000000
  115        7.919674   0.000000
  116        7.919675   0.000000
  117        8.124996   0.000000
  118        8.124996   0.000000
  119        8.170996   0.000000
  120        8.170996   0.000000
  121        8.703902   0.000000
  122        8.703902   0.000000
  123        8.730265   0.000000
  124        8.730266   0.000000
  125        8.916342   0.000000
  126        9.047605   0.000000
  127        9.047605   0.000000
  128        9.067565   0.000000
  129        9.067565   0.000000
  130        9.256731   0.000000
  131        9.256731   0.000000
  132        9.271351   0.000000
  133        9.271352   0.000000
  134        9.628335   0.000000
  135       10.631247   0.000000
  136       11.458670   0.000000
  137       11.915244   0.000000
  138       12.099182   0.000000
  139       14.991622   0.000000
  140       15.348780   0.000000
  141       15.400230   0.000000
  142       15.400230   0.000000
  143       15.402298   0.000000
  144       15.402299   0.000000
  145       15.479973   0.000000
  146       15.479973   0.000000
  147       15.657159   0.000000
  148       15.657159   0.000000
  149       15.912464   0.000000
  150       15.912464   0.000000
  151       15.987136   0.000000
  152       16.007244   0.000000
  153       16.223490   0.000000
  154       16.223490   0.000000
  155       16.450221   0.000000
  156       16.483263   0.000000
  157       16.483263   0.000000
  158       16.631657   0.000000
  159       16.929817   0.000000
  160       16.929817   0.000000
  161       17.652967   0.000000
  162       17.652967   0.000000
  163       18.104218   0.000000
  164       18.104218   0.000000
  165       18.326088   0.000000
  166       18.326088   0.000000
  167       18.439320   0.000000
  168       18.450434   0.000000
  169       18.450434   0.000000
  170       18.452010   0.000000
  171       18.512486   0.000000
  172       18.675448   0.000000
  173       18.866775   0.000000
  174       18.952714   0.000000
  175       18.967604   0.000000
  176       18.972649   0.000000
  177       19.108754   0.000000
  178       19.615174   0.000000
  179       19.707850   0.000000
  180       20.036633   0.000000
  181       20.569451   0.000000
  182       20.569451   0.000000
  183       20.619645   0.000000
  184       20.995914   0.000000
  185       21.028593   0.000000
  186       21.028593   0.000000
  187       21.325639   0.000000
  188       21.845916   0.000000
  189       21.845916   0.000000
  190       21.886481   0.000000
  191       22.257323   0.000000
  192       22.871694   0.000000
  193       22.871694   0.000000
  194       23.249187   0.000000
  195       23.951208   0.000000
  196       23.951209   0.000000
  197       24.486555   0.000000
  198       24.649100   0.000000
  199       24.649100   0.000000
  200       24.776395   0.000000
  201       24.776395   0.000000
  202       24.853416   0.000000
  203       24.853416   0.000000
  204       25.017594   0.000000
  205       25.279817   0.000000
  206       25.279817   0.000000
  207       25.557285   0.000000
  208       25.564110   0.000000
 
  0.1111111E+00  0.3315695E-17  0.2500000E+00  0.6172840E-02
    1      -15.811021   1.000000
    2      -15.646938   1.000000
    3      -15.349539   1.000000
    4      -14.991214   1.000000
    5      -14.787171   1.000000
    6      -14.786318   1.000000
    7      -14.783631   1.000000
    8      -14.722323   1.000000
    9      -14.712882   1.000000
   10      -14.643367   1.000000
   11      -14.630836   1.000000
   12      -14.627735   1.000000
   13      -14.578565   1.000000
   14      -14.566463   1.000000
   15      -14.502717   1.000000
   16      -14.501194   1.000000
   17      -14.494659   1.000000
   18      -14.434090   1.000000
   19       -2.889042   1.000000
   20       -2.566172   1.000000
   21       -2.302961   1.000000
   22       -2.291988   1.000000
   23       -2.265910   1.000000
   24       -2.219538   1.000000
   25       -2.214145   1.000000
   26       -2.173599   1.000000
   27       -2.066013   1.000000
   28       -2.022640   1.000000
   29       -1.939285   1.000000
   30       -1.911102   1.000000
   31       -1.879208   1.000000
   32       -1.868552   1.000000
   33       -1.821978   1.000000
   34       -1.772705   1.000000
   35       -1.655142   1.000000
   36       -1.587768   1.000000
   37       -1.585677   1.000000
   38       -1.384468   1.000000
   39       -1.331038   1.000000
   40       -1.264689   1.000000
   41       -1.249212   1.000000
   42       -1.173504   1.000000
   43       -1.172829   1.000000
   44       -1.151340   1.000000
   45       -1.133132   1.000000
   46       -1.052755   1.000000
   47       -1.044769   1.000000
   48       -1.034888   1.000000
   49       -0.886600   1.000000
   50       -0.879998   1.000000
   51       -0.710496   1.000000
   52       -0.458471   1.000000
   53       -0.239409   1.000000
   54        0.017865   1.000000
   55        0.086854   1.000000
   56        0.196016   1.000000
   57        0.217690   1.000000
   58        0.220360   1.000000
   59        0.283403   1.000000
   60        0.405109   1.000000
   61        0.533833   1.000000
   62        0.548888   1.000000
   63        0.566846   1.000000
   64        0.577342   1.000000
   65        0.670663   1.000000
   66        0.797174   1.000000
   67        0.843830   1.000000
   68        1.031058   1.000000
   69        1.055878   1.000000
   70        1.090720   1.000000
   71        1.179743   1.000000
   72        1.282673   1.000000
   73        4.423567   1.000000
   74        4.831117   1.000000
   75        4.991448   1.000000
   76        5.136949   0.962287
   77        5.161280   0.862074
   78        5.257695   0.050779
   79        5.279723   0.011899
   80        5.371667   0.000001
   81        5.501511   0.000000
   82        5.507263   0.000000
   83        5.508919   0.000000
   84        5.509369   0.000000
   85        5.596325   0.000000
   86        5.656556   0.000000
   87        5.666777   0.000000
   88        5.697845   0.000000
   89        5.706661   0.000000
   90        5.716306   0.000000
   91        5.730050   0.000000
   92        5.751102   0.000000
   93        5.784298   0.000000
   94        5.802219   0.000000
   95        5.946076   0.000000
   96        5.946587   0.000000
   97        6.136444   0.000000
   98        6.179839   0.000000
   99        6.323748   0.000000
  100        6.369996   0.000000
  101        6.386536   0.000000
  102        6.396117   0.000000
  103        6.472258   0.000000
  104        6.630586   0.000000
  105        6.656285   0.000000
  106        6.854035   0.000000
  107        7.065157   0.000000
  108        7.281993   0.000000
  109        7.704814   0.000000
  110        7.705688   0.000000
  111        7.750334   0.000000
  112        7.861820   0.000000
  113        7.865622   0.000000
  114        7.889758   0.000000
  115        7.892629   0.000000
  116        7.929485   0.000000
  117        8.040383   0.000000
  118        8.063450   0.000000
  119        8.234541   0.000000
  120        8.306231   0.000000
  121        8.488835   0.000000
  122        8.620871   0.000000
  123        8.781818   0.000000
  124        8.803120   0.000000
  125        8.861405   0.000000
  126        8.967925   0.000000
  127        9.016967   0.000000
  128        9.081623   0.000000
  129        9.168985   0.000000
  130        9.191067   0.000000
  131        9.205511   0.000000
  132        9.281304   0.000000
  133        9.286806   0.000000
  134        9.837698   0.000000
  135       10.822832   0.000000
  136       11.637841   0.000000
  137       12.108042   0.000000
  138       12.335758   0.000000
  139       14.642755   0.000000
  140       14.768493   0.000000
  141       14.799989   0.000000
  142       14.942691   0.000000
  143       15.183331   0.000000
  144       15.191988   0.000000
  145       15.195056   0.000000
  146       15.251775   0.000000
  147       15.816654   0.000000
  148       15.883100   0.000000
  149       15.941737   0.000000
  150       16.002853   0.000000
  151       16.100336   0.000000
  152       16.127923   0.000000
  153       16.407272   0.000000
  154       16.437193   0.000000
  155       16.474555   0.000000
  156       16.702052   0.000000
  157       16.773070   0.000000
  158       16.815049   0.000000
  159       16.980924   0.000000
  160       17.368160   0.000000
  161       17.488054   0.000000
  162       18.090550   0.000000
  163       18.140307   0.000000
  164       18.146095   0.000000
  165       18.241130   0.000000
  166       18.306579   0.000000
  167       18.415557   0.000000
  168       18.476303   0.000000
  169       18.483529   0.000000
  170       18.587832   0.000000
  171       18.677450   0.000000
  172       18.704683   0.000000
  173       18.904090   0.000000
  174       18.939239   0.000000
  175       18.962409   0.000000
  176       19.023849   0.000000
  177       19.138359   0.000000
  178       19.662061   0.000000
  179       19.759766   0.000000
  180       20.042764   0.000000
  181       20.285601   0.000000
  182       20.642501   0.000000
  183       20.723988   0.000000
  184       20.867607   0.000000
  185       20.942264   0.000000
  186       21.067369   0.000000
  187       21.428544   0.000000
  188       21.657607   0.000000
  189       21.929582   0.000000
  190       21.932338   0.000000
  191       22.278614   0.000000
  192       22.569923   0.000000
  193       22.821803   0.000000
  194       23.224433   0.000000
  195       23.324474   0.000000
  196       23.858256   0.000000
  197       23.916356   0.000000
  198       23.939989   0.000000
  199       24.010633   0.000000
  200       24.294019   0.000000
  201       24.460578   0.000000
  202       24.799996   0.000000
  203       25.205718   0.000000
  204       25.318106   0.000000
  205       25.329874   0.000000
  206       25.339535   0.000000
  207       25.449807   0.000000
  208       25.463675   0.000000
 
  0.2222222E+00  0.4092489E-16  0.2500000E+00  0.6172840E-02
    1      -15.692746   1.000000
    2      -15.553027   1.000000
    3      -15.282010   1.000000
    4      -14.989328   1.000000
    5      -14.837881   1.000000
    6      -14.789924   1.000000
    7      -14.765928   1.000000
    8      -14.754230   1.000000
    9      -14.709248   1.000000
   10      -14.663791   1.000000
   11      -14.650185   1.000000
   12      -14.647728   1.000000
   13      -14.597942   1.000000
   14      -14.590318   1.000000
   15      -14.575603   1.000000
   16      -14.526616   1.000000
   17      -14.495296   1.000000
   18      -14.469452   1.000000
   19       -2.780733   1.000000
   20       -2.583873   1.000000
   21       -2.508954   1.000000
   22       -2.432201   1.000000
   23       -2.309053   1.000000
   24       -2.293465   1.000000
   25       -2.252639   1.000000
   26       -2.190166   1.000000
   27       -2.151322   1.000000
   28       -2.134037   1.000000
   29       -2.043256   1.000000
   30       -1.895149   1.000000
   31       -1.872152   1.000000
   32       -1.830044   1.000000
   33       -1.799844   1.000000
   34       -1.731118   1.000000
   35       -1.700060   1.000000
   36       -1.431253   1.000000
   37       -1.426451   1.000000
   38       -1.356517   1.000000
   39       -1.277148   1.000000
   40       -1.240605   1.000000
   41       -1.180673   1.000000
   42       -1.174696   1.000000
   43       -1.174486   1.000000
   44       -1.159082   1.000000
   45       -0.981202   1.000000
   46       -0.955845   1.000000
   47       -0.883423   1.000000
   48       -0.823914   1.000000
   49       -0.739732   1.000000
   50       -0.661664   1.000000
   51       -0.660358   1.000000
   52       -0.348832   1.000000
   53       -0.085056   1.000000
   54        0.001379   1.000000
   55        0.013261   1.000000
   56        0.040697   1.000000
   57        0.042320   1.000000
   58        0.176258   1.000000
   59        0.242102   1.000000
   60        0.299759   1.000000
   61        0.473228   1.000000
   62        0.582867   1.000000
   63        0.594784   1.000000
   64        0.607966   1.000000
   65        0.621074   1.000000
   66        0.647389   1.000000
   67        0.833543   1.000000
   68        0.924555   1.000000
   69        0.961444   1.000000
   70        0.992490   1.000000
   71        1.000166   1.000000
   72        1.188287   1.000000
   73        4.445848   1.000000
   74        4.735589   1.000000
   75        4.811295   1.000000
   76        4.824121   1.000000
   77        4.997791   1.000000
   78        5.115958   0.991144
   79        5.285115   0.007913
   80        5.357609   0.000004
   81        5.368650   0.000001
   82        5.421392   0.000000
   83        5.473087   0.000000
   84        5.486241   0.000000
   85        5.713894   0.000000
   86        5.718415   0.000000
   87        5.720236   0.000000
   88        5.732742   0.000000
   89        5.744354   0.000000
   90        5.794101   0.000000
   91        5.855452   0.000000
   92        5.871623   0.000000
   93        5.892590   0.000000
   94        6.014362   0.000000
   95        6.091283   0.000000
   96        6.104825   0.000000
   97        6.214591   0.000000
   98        6.236854   0.000000
   99        6.298271   0.000000
  100        6.298586   0.000000
  101        6.301982   0.000000
  102        6.355920   0.000000
  103        6.580185   0.000000
  104        6.667821   0.000000
  105        6.684749   0.000000
  106        6.828406   0.000000
  107        7.081759   0.000000
  108        7.221219   0.000000
  109        7.653919   0.000000
  110        7.724531   0.000000
  111        7.744805   0.000000
  112        7.773919   0.000000
  113        7.876439   0.000000
  114        7.937034   0.000000
  115        7.939143   0.000000
  116        7.950513   0.000000
  117        8.033385   0.000000
  118        8.244028   0.000000
  119        8.245897   0.000000
  120        8.260729   0.000000
  121        8.458767   0.000000
  122        8.460968   0.000000
  123        8.520603   0.000000
  124        8.792669   0.000000
  125        8.805912   0.000000
  126        8.821866   0.000000
  127        8.946575   0.000000
  128        8.949285   0.000000
  129        9.094056   0.000000
  130        9.153321   0.000000
  131        9.187313   0.000000
  132        9.304577   0.000000
  133        9.738881   0.000000
  134       10.354895   0.000000
  135       11.297329   0.000000
  136       12.076814   0.000000
  137       12.577259   0.000000
  138       12.959762   0.000000
  139       13.945291   0.000000
  140       14.007416   0.000000
  141       14.114687   0.000000
  142       14.220269   0.000000
  143       14.533191   0.000000
  144       14.604504   0.000000
  145       14.969885   0.000000
  146       14.991965   0.000000
  147       15.792560   0.000000
  148       15.891614   0.000000
  149       15.907804   0.000000
  150       15.923282   0.000000
  151       16.263401   0.000000
  152       16.446397   0.000000
  153       16.479230   0.000000
  154       16.491403   0.000000
  155       16.888153   0.000000
  156       16.931985   0.000000
  157       17.187754   0.000000
  158       17.212632   0.000000
  159       17.287697   0.000000
  160       17.697327   0.000000
  161       18.030443   0.000000
  162       18.157482   0.000000
  163       18.163255   0.000000
  164       18.294963   0.000000
  165       18.352389   0.000000
  166       18.369524   0.000000
  167       18.462121   0.000000
  168       18.477028   0.000000
  169       18.505944   0.000000
  170       18.706941   0.000000
  171       18.715471   0.000000
  172       18.886213   0.000000
  173       18.925290   0.000000
  174       19.010230   0.000000
  175       19.187570   0.000000
  176       19.306452   0.000000
  177       19.340906   0.000000
  178       19.740902   0.000000
  179       19.864787   0.000000
  180       19.917559   0.000000
  181       20.151531   0.000000
  182       20.668297   0.000000
  183       20.766112   0.000000
  184       20.819023   0.000000
  185       20.824270   0.000000
  186       21.170163   0.000000
  187       21.300146   0.000000
  188       21.587651   0.000000
  189       21.904794   0.000000
  190       22.005447   0.000000
  191       22.087017   0.000000
  192       22.303379   0.000000
  193       22.517955   0.000000
  194       22.778959   0.000000
  195       22.918148   0.000000
  196       23.050348   0.000000
  197       23.233935   0.000000
  198       23.496446   0.000000
  199       23.619572   0.000000
  200       23.640311   0.000000
  201       23.655503   0.000000
  202       24.218397   0.000000
  203       24.421223   0.000000
  204       24.961212   0.000000
  205       25.129330   0.000000
  206       25.142330   0.000000
  207       25.211078   0.000000
  208       25.245078   0.000000
 
  0.3333333E+00  0.2268261E-16  0.2500000E+00  0.6172840E-02
    1      -15.510945   1.000000
    2      -15.419831   1.000000
    3      -15.175118   1.000000
    4      -15.019030   1.000000
    5      -14.877404   1.000000
    6      -14.826529   1.000000
    7      -14.796420   1.000000
    8      -14.756623   1.000000
    9      -14.728638   1.000000
   10      -14.727942   1.000000
   11      -14.707248   1.000000
   12      -14.702765   1.000000
   13      -14.644389   1.000000
   14      -14.591183   1.000000
   15      -14.567434   1.000000
   16      -14.554260   1.000000
   17      -14.520443   1.000000
   18      -14.488432   1.000000
   19       -2.720235   1.000000
   20       -2.669078   1.000000
   21       -2.639927   1.000000
   22       -2.583577   1.000000
   23       -2.422858   1.000000
   24       -2.420461   1.000000
   25       -2.221013   1.000000
   26       -2.172898   1.000000
   27       -2.146174   1.000000
   28       -2.084263   1.000000
   29       -2.007339   1.000000
   30       -1.872936   1.000000
   31       -1.811441   1.000000
   32       -1.803878   1.000000
   33       -1.803872   1.000000
   34       -1.625492   1.000000
   35       -1.614995   1.000000
   36       -1.391075   1.000000
   37       -1.345768   1.000000
   38       -1.305866   1.000000
   39       -1.304897   1.000000
   40       -1.201886   1.000000
   41       -1.184359   1.000000
   42       -1.143054   1.000000
   43       -1.104322   1.000000
   44       -1.090895   1.000000
   45       -0.941678   1.000000
   46       -0.920911   1.000000
   47       -0.779480   1.000000
   48       -0.654262   1.000000
   49       -0.627411   1.000000
   50       -0.530897   1.000000
   51       -0.340993   1.000000
   52       -0.335746   1.000000
   53       -0.281631   1.000000
   54       -0.150388   1.000000
   55       -0.086656   1.000000
   56       -0.000461   1.000000
   57        0.006636   1.000000
   58        0.117353   1.000000
   59        0.146491   1.000000
   60        0.222843   1.000000
   61        0.406143   1.000000
   62        0.497400   1.000000
   63        0.522472   1.000000
   64        0.561758   1.000000
   65        0.581946   1.000000
   66        0.671581   1.000000
   67        0.720361   1.000000
   68        0.848556   1.000000
   69        0.886604   1.000000
   70        1.003103   1.000000
   71        1.040000   1.000000
   72        1.131610   1.000000
   73        4.477292   1.000000
   74        4.550714   1.000000
   75        4.626008   1.000000
   76        4.627470   1.000000
   77        4.704540   1.000000
   78        4.910501   1.000000
   79        5.232851   0.174989
   80        5.313620   0.000643
   81        5.403945   0.000000
   82        5.443015   0.000000
   83        5.502313   0.000000
   84        5.522919   0.000000
   85        5.644181   0.000000
   86        5.759895   0.000000
   87        5.786230   0.000000
   88        5.787651   0.000000
   89        5.800585   0.000000
   90        5.821027   0.000000
   91        6.040518   0.000000
   92        6.076850   0.000000
   93        6.100962   0.000000
   94        6.116019   0.000000
   95        6.179921   0.000000
   96        6.198505   0.000000
   97        6.212591   0.000000
   98        6.224996   0.000000
   99        6.232355   0.000000
  100        6.324173   0.000000
  101        6.361587   0.000000
  102        6.362009   0.000000
  103        6.672721   0.000000
  104        6.685194   0.000000
  105        6.723043   0.000000
  106        6.804743   0.000000
  107        7.079569   0.000000
  108        7.111412   0.000000
  109        7.583813   0.000000
  110        7.730549   0.000000
  111        7.784122   0.000000
  112        7.863722   0.000000
  113        7.881426   0.000000
  114        7.928815   0.000000
  115        7.976350   0.000000
  116        8.006762   0.000000
  117        8.010760   0.000000
  118        8.143922   0.000000
  119        8.273452   0.000000
  120        8.297588   0.000000
  121        8.465192   0.000000
  122        8.490795   0.000000
  123        8.515844   0.000000
  124        8.526082   0.000000
  125        8.619576   0.000000
  126        8.656637   0.000000
  127        8.838282   0.000000
  128        8.996929   0.000000
  129        8.998657   0.000000
  130        9.001694   0.000000
  131        9.086986   0.000000
  132        9.354140   0.000000
  133       10.494371   0.000000
  134       11.032849   0.000000
  135       11.888267   0.000000
  136       12.482780   0.000000
  137       13.054396   0.000000
  138       13.222279   0.000000
  139       13.343723   0.000000
  140       13.479375   0.000000
  141       13.672071   0.000000
  142       13.823848   0.000000
  143       13.949407   0.000000
  144       14.009296   0.000000
  145       14.706340   0.000000
  146       14.864603   0.000000
  147       15.651410   0.000000
  148       15.659766   0.000000
  149       15.966300   0.000000
  150       15.971317   0.000000
  151       16.442455   0.000000
  152       16.507775   0.000000
  153       16.540715   0.000000
  154       16.622732   0.000000
  155       16.898067   0.000000
  156       17.060012   0.000000
  157       17.414045   0.000000
  158       17.500365   0.000000
  159       17.628451   0.000000
  160       18.059409   0.000000
  161       18.093269   0.000000
  162       18.124947   0.000000
  163       18.301382   0.000000
  164       18.343777   0.000000
  165       18.383498   0.000000
  166       18.413756   0.000000
  167       18.424817   0.000000
  168       18.536279   0.000000
  169       18.539451   0.000000
  170       18.780906   0.000000
  171       18.846125   0.000000
  172       18.965264   0.000000
  173       19.050914   0.000000
  174       19.223204   0.000000
  175       19.253576   0.000000
  176       19.715807   0.000000
  177       19.887760   0.000000
  178       19.895528   0.000000
  179       19.946260   0.000000
  180       19.958111   0.000000
  181       20.464017   0.000000
  182       20.613542   0.000000
  183       20.696152   0.000000
  184       20.881790   0.000000
  185       20.941517   0.000000
  186       21.089025   0.000000
  187       21.196005   0.000000
  188       21.393235   0.000000
  189       21.705165   0.000000
  190       21.739736   0.000000
  191       21.996323   0.000000
  192       22.190406   0.000000
  193       22.329465   0.000000
  194       22.488996   0.000000
  195       22.546049   0.000000
  196       22.755055   0.000000
  197       22.835793   0.000000
  198       22.851447   0.000000
  199       22.898846   0.000000
  200       22.960644   0.000000
  201       23.423312   0.000000
  202       23.548728   0.000000
  203       23.891302   0.000000
  204       24.450753   0.000000
  205       24.623390   0.000000
  206       24.771639   0.000000
  207       24.852110   0.000000
  208       25.146484   0.000000
 
  0.4444444E+00  0.8184977E-16  0.2500000E+00  0.6172840E-02
    1      -15.290433   1.000000
    2      -15.285332   1.000000
    3      -15.135093   1.000000
    4      -15.041214   1.000000
    5      -14.981533   1.000000
    6      -14.897956   1.000000
    7      -14.837847   1.000000
    8      -14.827924   1.000000
    9      -14.768207   1.000000
   10      -14.744117   1.000000
   11      -14.727328   1.000000
   12      -14.684388   1.000000
   13      -14.611624   1.000000
   14      -14.606237   1.000000
   15      -14.597411   1.000000
   16      -14.575923   1.000000
   17      -14.540381   1.000000
   18      -14.481720   1.000000
   19       -2.834586   1.000000
   20       -2.758189   1.000000
   21       -2.618625   1.000000
   22       -2.556580   1.000000
   23       -2.500713   1.000000
   24       -2.469712   1.000000
   25       -2.364493   1.000000
   26       -2.085100   1.000000
   27       -2.025038   1.000000
   28       -1.997723   1.000000
   29       -1.994224   1.000000
   30       -1.890334   1.000000
   31       -1.877630   1.000000
   32       -1.690860   1.000000
   33       -1.594619   1.000000
   34       -1.574386   1.000000
   35       -1.473007   1.000000
   36       -1.442216   1.000000
   37       -1.417103   1.000000
   38       -1.296070   1.000000
   39       -1.218110   1.000000
   40       -1.202307   1.000000
   41       -1.166263   1.000000
   42       -1.069091   1.000000
   43       -1.039160   1.000000
   44       -1.029184   1.000000
   45       -0.950854   1.000000
   46       -0.947456   1.000000
   47       -0.801507   1.000000
   48       -0.637542   1.000000
   49       -0.606741   1.000000
   50       -0.555001   1.000000
   51       -0.446360   1.000000
   52       -0.352171   1.000000
   53       -0.346173   1.000000
   54       -0.314753   1.000000
   55       -0.072748   1.000000
   56       -0.048928   1.000000
   57        0.041788   1.000000
   58        0.126526   1.000000
   59        0.240676   1.000000
   60        0.279813   1.000000
   61        0.307484   1.000000