       N       E                     dE             d eps       ncg     rms          rms(c)
DAV:   1     0.132626870899E+04    0.13263E+04   -0.44450E+04 67392   0.608E+02
DAV:   2    -0.125361352697E+03   -0.14516E+04   -0.12270E+04 67408   0.205E+02
DAV:   3    -0.326143017219E+03   -0.20078E+03   -0.18865E+03 74000   0.882E+01
DAV:   4    -0.332005573502E+03   -0.58626E+01   -0.58047E+01 73488   0.160E+01
DAV:   5    -0.332047168225E+03   -0.41595E-01   -0.41592E-01 72480   0.139E+00    0.817E+01
DAV:   6    -0.270868128083E+03    0.61179E+02   -0.74893E+01 93424   0.310E+01    0.298E+01
DAV:   7    -0.268926569639E+03    0.19416E+01   -0.14795E+01 79184   0.126E+01    0.246E+01
DAV:   8    -0.268944468243E+03   -0.17899E-01   -0.46157E+00 79616   0.974E+00    0.177E+01
DAV:   9    -0.267825337453E+03    0.11191E+01   -0.91025E-01 75664   0.511E+00    0.148E+00
DAV:  10    -0.267815923025E+03    0.94144E-02   -0.86245E-02 73136   0.638E-01    0.130E+00
DAV:  11    -0.267811541482E+03    0.43815E-02   -0.31516E-02 79456   0.434E-01    0.877E-01
DAV:  12    -0.267805473274E+03    0.60682E-02   -0.19227E-02 78128   0.495E-01    0.371E-01
DAV:  13    -0.267805104764E+03    0.36851E-03   -0.15940E-03 71408   0.106E-01    0.258E-01
DAV:  14    -0.267804806220E+03    0.29854E-03   -0.26277E-04 75392   0.668E-02    0.704E-02
DAV:  15    -0.267804796316E+03    0.99039E-05   -0.63584E-05 73280   0.228E-02    0.507E-02
DAV:  16    -0.267804795436E+03    0.88028E-06   -0.43907E-05 72192   0.204E-02    0.201E-02
DAV:  17    -0.267804801613E+03   -0.61774E-05   -0.16165E-05 74528   0.104E-02    0.181E-02
DAV:  18    -0.267804800492E+03    0.11208E-05   -0.10757E-05 74016   0.827E-03    0.544E-03
DAV:  19    -0.267804800433E+03    0.59837E-07   -0.15847E-06 73216   0.314E-03    0.339E-03
DAV:  20    -0.267804800622E+03   -0.18917E-06   -0.43125E-07 71008   0.147E-03    0.387E-03
DAV:  21    -0.267804800104E+03    0.51801E-06   -0.68451E-08 72768   0.952E-04    0.273E-03
DAV:  22    -0.267804799625E+03    0.47845E-06   -0.48420E-08 69184   0.747E-04    0.824E-04
DAV:  23    -0.267804799588E+03    0.36905E-07   -0.13534E-08 62336   0.356E-04    0.605E-04
DAV:  24    -0.267804799592E+03   -0.31414E-08   -0.60451E-09 53408   0.268E-04
   1 F= -.26780480E+03 E0= -.26779872E+03  d E =-.121618E-01
