 vasp.5.4.4.18Apr17-6-g9f103f2a35 (build Jul 11 2019 11:52:51) complex          
  
 executed on             LinuxIFC date 2024.08.29  21:15:24
 running on   16 total cores
 distrk:  each k-point on   16 cores,    1 groups
 distr:  one band on NCORES_PER_BAND=   1 cores,   16 groups


--------------------------------------------------------------------------------------------------------


 INCAR:
 POTCAR:    PAW_PBE Ti 08Apr2002                  
 POTCAR:    PAW_PBE O 08Apr2002                   

 ----------------------------------------------------------------------------- 
|                                                                             |
|           W    W    AA    RRRRR   N    N  II  N    N   GGGG   !!!           |
|           W    W   A  A   R    R  NN   N  II  NN   N  G    G  !!!           |
|           W    W  A    A  R    R  N N  N  II  N N  N  G       !!!           |
|           W WW W  AAAAAA  RRRRR   N  N N  II  N  N N  G  GGG   !            |
|           WW  WW  A    A  R   R   N   NN  II  N   NN  G    G                |
|           W    W  A    A  R    R  N    N  II  N    N   GGGG   !!!           |
|                                                                             |
|      For optimal performance we recommend to set                            |
|        NCORE= 4 - approx SQRT( number of cores)                             |
|      NCORE specifies how many cores store one orbital (NPAR=cpu/NCORE).     |
|      This setting can  greatly improve the performance of VASP for DFT.     |
|      The default,   NCORE=1            might be grossly inefficient         |
|      on modern multi-core architectures or massively parallel machines.     |
|      Do your own testing !!!!                                               |
|      Unfortunately you need to use the default for GW and RPA calculations. |
|      (for HF NCORE is supported but not extensively tested yet)             |
|                                                                             |
 ----------------------------------------------------------------------------- 

 POTCAR:    PAW_PBE Ti 08Apr2002                  
   VRHFIN =Ti: d3 s1                                                            
   LEXCH  = PE                                                                  
   EATOM  =    94.7928 eV,    6.9671 Ry                                         
                                                                                
   TITEL  = PAW_PBE Ti 08Apr2002                                                
   LULTRA =        F    use ultrasoft PP ?                                      
   IUNSCR =        1    unscreen: 0-lin 1-nonlin 2-no                           
   RPACOR =    2.200    partial core radius                                     
   POMASS =   47.880; ZVAL   =    4.000    mass and valenz                      
   RCORE  =    2.800    outmost cutoff radius                                   
   RWIGS  =    2.500; RWIGS  =    1.323    wigner-seitz radius (au A)           
   ENMAX  =  178.330; ENMIN  =  133.747 eV                                      
   RCLOC  =    2.215    cutoff for local pot                                    
   LCOR   =        T    correct aug charges                                     
   LPAW   =        T    paw PP                                                  
   EAUG   =  328.883                                                            
   DEXC   =    0.000                                                            
   RMAX   =    2.868    core radius for proj-oper                               
   RAUG   =    1.300    factor for augmentation sphere                          
   RDEP   =    2.885    radius for radial grids                                 
   RDEPT  =    2.320    core radius for aug-charge                              
                                                                                
   Atomic configuration                                                         
    9 entries                                                                   
     n  l   j            E        occ.                                          
     1  0  0.50     -4865.3608   2.0000                                         
     2  0  0.50      -533.1367   2.0000                                         
     2  1  1.50      -440.5031   6.0000                                         
     3  0  0.50       -59.3186   2.0000                                         
     3  1  1.50       -35.7012   6.0000                                         
     3  2  2.50        -1.9157   3.0000                                         
     4  0  0.50        -3.7291   1.0000                                         
     4  1  1.50        -4.0817   0.0000                                         
     4  3  2.50        -1.3606   0.0000                                         
   Description                                                                  
     l       E           TYP  RCUT    TYP  RCUT                                 
     2     -1.9156924     23  2.800                                             
     2     -0.4062961     23  2.800                                             
     0     -3.7290832     23  2.800                                             
     0     20.4087390     23  2.800                                             
     1     -5.4423304     23  2.800                                             
  local pseudopotential read in
  partial core-charges read in
  partial kinetic energy density read in
  atomic valenz-charges read in
  non local Contribution for L=           2  read in
    real space projection operators read in
  non local Contribution for L=           2  read in
    real space projection operators read in
  non local Contribution for L=           0  read in
    real space projection operators read in
  non local Contribution for L=           0  read in
    real space projection operators read in
  non local Contribution for L=           1  read in
    real space projection operators read in
    PAW grid and wavefunctions read in
 
   number of l-projection  operators is LMAX  =           5
   number of lm-projection operators is LMMAX =          15
 
 POTCAR:    PAW_PBE O 08Apr2002                   
   VRHFIN =O: s2p4                                                              
   LEXCH  = PE                                                                  
   EATOM  =   432.3788 eV,   31.7789 Ry                                         
                                                                                
   TITEL  = PAW_PBE O 08Apr2002                                                 
   LULTRA =        F    use ultrasoft PP ?                                      
   IUNSCR =        1    unscreen: 0-lin 1-nonlin 2-no                           
   RPACOR =    1.200    partial core radius                                     
   POMASS =   16.000; ZVAL   =    6.000    mass and valenz                      
   RCORE  =    1.520    outmost cutoff radius                                   
   RWIGS  =    1.550; RWIGS  =    0.820    wigner-seitz radius (au A)           
   ENMAX  =  400.000; ENMIN  =  300.000 eV                                      
   ICORE  =        2    local potential                                         
   LCOR   =        T    correct aug charges                                     
   LPAW   =        T    paw PP                                                  
   EAUG   =  605.392                                                            
   DEXC   =    0.000                                                            
   RMAX   =    1.553    core radius for proj-oper                               
   RAUG   =    1.300    factor for augmentation sphere                          
   RDEP   =    1.550    radius for radial grids                                 
   RDEPT  =    1.329    core radius for aug-charge                              
                                                                                
   Atomic configuration                                                         
    4 entries                                                                   
     n  l   j            E        occ.                                          
     1  0  0.50      -514.6923   2.0000                                         
     2  0  0.50       -23.9615   2.0000                                         
     2  1  0.50        -9.0305   4.0000                                         
     3  2  1.50        -9.5241   0.0000                                         
   Description                                                                  
     l       E           TYP  RCUT    TYP  RCUT                                 
     0    -23.9615318     23  1.200                                             
     0     -9.5240782     23  1.200                                             
     1     -9.0304911     23  1.520                                             
     1      8.1634956     23  1.520                                             
     2     -9.5240782      7  1.500                                             
  local pseudopotential read in
  partial core-charges read in
  partial kinetic energy density read in
  kinetic energy density of atom read in
  atomic valenz-charges read in
  non local Contribution for L=           0  read in
    real space projection operators read in
  non local Contribution for L=           0  read in
    real space projection operators read in
  non local Contribution for L=           1  read in
    real space projection operators read in
  non local Contribution for L=           1  read in
    real space projection operators read in
    PAW grid and wavefunctions read in
 
   number of l-projection  operators is LMAX  =           4
   number of lm-projection operators is LMMAX =           8
 

 ----------------------------------------------------------------------------- 
|                                                                             |
|  ADVICE TO THIS USER RUNNING 'VASP/VAMP'   (HEAR YOUR MASTER'S VOICE ...):  |
|                                                                             |
|      You have a (more or less) 'large supercell' and for larger cells       |
|      it might be more efficient to use real space projection opertators     |
|      So try LREAL= Auto  in the INCAR   file.                               |
|      Mind:          For very  accurate calculation you might also keep the  |
|      reciprocal projection scheme          (i.e. LREAL=.FALSE.)             |
|                                                                             |
 ----------------------------------------------------------------------------- 

  PAW_PBE Ti 08Apr2002                  :
 energy of atom  1       EATOM=  -94.7928
 kinetic energy error for atom=    0.0005 (will be added to EATOM!!)
  PAW_PBE O 08Apr2002                   :
 energy of atom  2       EATOM= -432.3788
 kinetic energy error for atom=    0.1156 (will be added to EATOM!!)
 
 
 POSCAR: Ti12 O18                                
  positions in direct lattice
  velocities in cartesian coordinates
 exchange correlation table for  LEXCH =        8
   RHO(1)=    0.500       N(1)  =     2000
   RHO(2)=  100.500       N(2)  =     4000
 


--------------------------------------------------------------------------------------------------------


 ion  position               nearest neighbor table
   1  0.333  0.667  0.012-  16 2.01  17 2.01  18 2.01  25 2.07  27 2.07  26 2.07  10 2.64  11 2.97
                            11 2.97  11 2.97
   2  0.000  0.000  0.154-  16 2.01  17 2.01  18 2.01  13 2.07  14 2.07  15 2.07   5 2.64   4 2.97
                             4 2.97   4 2.97
   3  0.333  0.667  0.321-  15 2.01  14 2.01  13 2.01  23 2.07  24 2.07  22 2.07   8 2.64   5 2.97
                             5 2.97   5 2.97
   4  0.667  0.333  0.179-  15 2.01  13 2.01  14 2.01  16 2.07  18 2.07  17 2.07  11 2.64   2 2.97
                             2 2.97   2 2.97
   5  0.000  0.000  0.346-  22 2.01  23 2.01  24 2.01  13 2.07  14 2.07  15 2.07   2 2.64   3 2.97
                             3 2.97   3 2.97
   6  0.667  0.333  0.488-  23 2.01  22 2.01  24 2.01  20 2.07  21 2.07  19 2.07   9 2.64   8 2.97
                             8 2.97   8 2.97
   7  0.000  0.000  0.654-  19 2.01  20 2.01  21 2.01  28 2.07  29 2.07  30 2.07  12 2.64   9 2.97
                             9 2.97   9 2.97
   8  0.333  0.667  0.512-  20 2.01  19 2.01  21 2.01  23 2.07  24 2.07  22 2.07   3 2.64   6 2.97
                             6 2.97   6 2.97
   9  0.667  0.333  0.679-  30 2.01  29 2.01  28 2.01  20 2.07  21 2.07  19 2.07   6 2.64   7 2.97
                             7 2.97   7 2.97
  10  0.333  0.667  0.821-  30 2.01  28 2.01  29 2.01  25 2.07  27 2.07  26 2.07   1 2.64  12 2.97
                            12 2.97  12 2.97
  11  0.667  0.333  0.988-  25 2.01  26 2.01  27 2.01  16 2.07  18 2.07  17 2.07   4 2.64   1 2.97
                             1 2.97   1 2.97
  12  0.000  0.000  0.846-  25 2.01  26 2.01  27 2.01  28 2.07  29 2.07  30 2.07   7 2.64  10 2.97
                            10 2.97  10 2.97
  13  0.313  0.000  0.250-   4 2.01   3 2.01   2 2.07   5 2.07
  14  0.000  0.313  0.250-   3 2.01   4 2.01   2 2.07   5 2.07
  15  0.687  0.687  0.250-   3 2.01   4 2.01   2 2.07   5 2.07
  16  0.354  0.333  0.083-   1 2.01   2 2.01   4 2.07  11 2.07
  17  0.667  0.021  0.083-   1 2.01   2 2.01   4 2.07  11 2.07
  18  0.979  0.646  0.083-   1 2.01   2 2.01   4 2.07  11 2.07
  19  0.979  0.333  0.583-   8 2.01   7 2.01   9 2.07   6 2.07
  20  0.667  0.646  0.583-   8 2.01   7 2.01   9 2.07   6 2.07
  21  0.354  0.021  0.583-   7 2.01   8 2.01   9 2.07   6 2.07
  22  0.021  0.667  0.417-   6 2.01   5 2.01   3 2.07   8 2.07
  23  0.333  0.354  0.417-   6 2.01   5 2.01   3 2.07   8 2.07
  24  0.646  0.979  0.417-   5 2.01   6 2.01   3 2.07   8 2.07
  25  0.646  0.667  0.917-  11 2.01  12 2.01  10 2.07   1 2.07
  26  0.333  0.979  0.917-  11 2.01  12 2.01  10 2.07   1 2.07
  27  0.021  0.354  0.917-  11 2.01  12 2.01  10 2.07   1 2.07
  28  0.687  0.000  0.750-  10 2.01   9 2.01   7 2.07  12 2.07
  29  0.000  0.687  0.750-   9 2.01  10 2.01   7 2.07  12 2.07
  30  0.313  0.313  0.750-   9 2.01  10 2.01   7 2.07  12 2.07
 

IMPORTANT INFORMATION: All symmetrisations will be switched off!
NOSYMM: (Re-)initialisation of all symmetry stuff for point group C_1.

 
 
 KPOINTS: K-Spacing Value to Generate K-Mesh: 0.03

Automatic generation of k-mesh.
Space group operators:
 irot       det(A)        alpha          n_x          n_y          n_z        tau_x        tau_y        tau_z
    1     1.000000     0.000001     1.000000     0.000000     0.000000     0.000000     0.000000     0.000000
 
 Subroutine IBZKPT returns following result:
 ===========================================
 
 Found    162 irreducible k-points:
 
 Following reciprocal coordinates:
            Coordinates               Weight
  0.000000  0.000000  0.250000      1.000000
  0.111111  0.000000  0.250000      1.000000
  0.222222  0.000000  0.250000      1.000000
  0.333333  0.000000  0.250000      1.000000
  0.444444  0.000000  0.250000      1.000000
 -0.444444 -0.000000  0.250000      1.000000
 -0.333333 -0.000000  0.250000      1.000000
 -0.222222 -0.000000  0.250000      1.000000
 -0.111111 -0.000000  0.250000      1.000000
  0.000000  0.111111  0.250000      1.000000
  0.111111  0.111111  0.250000      1.000000
  0.222222  0.111111  0.250000      1.000000
  0.333333  0.111111  0.250000      1.000000
  0.444444  0.111111  0.250000      1.000000
 -0.444444  0.111111  0.250000      1.000000
 -0.333333  0.111111  0.250000      1.000000
 -0.222222  0.111111  0.250000      1.000000
 -0.111111  0.111111  0.250000      1.000000
  0.000000  0.222222  0.250000      1.000000
  0.111111  0.222222  0.250000      1.000000
  0.222222  0.222222  0.250000      1.000000
  0.333333  0.222222  0.250000      1.000000
  0.444444  0.222222  0.250000      1.000000
 -0.444444  0.222222  0.250000      1.000000
 -0.333333  0.222222  0.250000      1.000000
 -0.222222  0.222222  0.250000      1.000000
 -0.111111  0.222222  0.250000      1.000000
  0.000000  0.333333  0.250000      1.000000
  0.111111  0.333333  0.250000      1.000000
  0.222222  0.333333  0.250000      1.000000
  0.333333  0.333333  0.250000      1.000000
  0.444444  0.333333  0.250000      1.000000
 -0.444444  0.333333  0.250000      1.000000
 -0.333333  0.333333  0.250000      1.000000
 -0.222222  0.333333  0.250000      1.000000
 -0.111111  0.333333  0.250000      1.000000
  0.000000  0.444444  0.250000      1.000000
  0.111111  0.444444  0.250000      1.000000
  0.222222  0.444444  0.250000      1.000000
  0.333333  0.444444  0.250000      1.000000
  0.444444  0.444444  0.250000      1.000000
 -0.444444  0.444444  0.250000      1.000000
 -0.333333  0.444444  0.250000      1.000000
 -0.222222  0.444444  0.250000      1.000000
 -0.111111  0.444444  0.250000      1.000000
 -0.000000 -0.444444  0.250000      1.000000
  0.111111 -0.444444  0.250000      1.000000
  0.222222 -0.444444  0.250000      1.000000
  0.333333 -0.444444  0.250000      1.000000
  0.444444 -0.444444  0.250000      1.000000
 -0.444444 -0.444444  0.250000      1.000000
 -0.333333 -0.444444  0.250000      1.000000
 -0.222222 -0.444444  0.250000      1.000000
 -0.111111 -0.444444  0.250000      1.000000
 -0.000000 -0.333333  0.250000      1.000000
  0.111111 -0.333333  0.250000      1.000000
  0.222222 -0.333333  0.250000      1.000000
  0.333333 -0.333333  0.250000      1.000000
  0.444444 -0.333333  0.250000      1.000000
 -0.444444 -0.333333  0.250000      1.000000
 -0.333333 -0.333333  0.250000      1.000000
 -0.222222 -0.333333  0.250000      1.000000
 -0.111111 -0.333333  0.250000      1.000000
 -0.000000 -0.222222  0.250000      1.000000
  0.111111 -0.222222  0.250000      1.000000
  0.222222 -0.222222  0.250000      1.000000
  0.333333 -0.222222  0.250000      1.000000
  0.444444 -0.222222  0.250000      1.000000
 -0.444444 -0.222222  0.250000      1.000000
 -0.333333 -0.222222  0.250000      1.000000
 -0.222222 -0.222222  0.250000      1.000000
 -0.111111 -0.222222  0.250000      1.000000
 -0.000000 -0.111111  0.250000      1.000000
  0.111111 -0.111111  0.250000      1.000000
  0.222222 -0.111111  0.250000      1.000000
  0.333333 -0.111111  0.250000      1.000000
  0.444444 -0.111111  0.250000      1.000000
 -0.444444 -0.111111  0.250000      1.000000
 -0.333333 -0.111111  0.250000      1.000000
 -0.222222 -0.111111  0.250000      1.000000
 -0.111111 -0.111111  0.250000      1.000000
  0.000000  0.000000 -0.250000      1.000000
  0.111111  0.000000 -0.250000      1.000000
  0.222222  0.000000 -0.250000      1.000000
  0.333333  0.000000 -0.250000      1.000000
  0.444444  0.000000 -0.250000      1.000000
 -0.444444 -0.000000 -0.250000      1.000000
 -0.333333 -0.000000 -0.250000      1.000000
 -0.222222 -0.000000 -0.250000      1.000000
 -0.111111 -0.000000 -0.250000      1.000000
  0.000000  0.111111 -0.250000      1.000000
  0.111111  0.111111 -0.250000      1.000000
  0.222222  0.111111 -0.250000      1.000000
  0.333333  0.111111 -0.250000      1.000000
  0.444444  0.111111 -0.250000      1.000000
 -0.444444  0.111111 -0.250000      1.000000
 -0.333333  0.111111 -0.250000      1.000000
 -0.222222  0.111111 -0.250000      1.000000
 -0.111111  0.111111 -0.250000      1.000000
  0.000000  0.222222 -0.250000      1.000000
  0.111111  0.222222 -0.250000      1.000000
  0.222222  0.222222 -0.250000      1.000000
  0.333333  0.222222 -0.250000      1.000000
  0.444444  0.222222 -0.250000      1.000000
 -0.444444  0.222222 -0.250000      1.000000
 -0.333333  0.222222 -0.250000      1.000000
 -0.222222  0.222222 -0.250000      1.000000
 -0.111111  0.222222 -0.250000      1.000000
  0.000000  0.333333 -0.250000      1.000000
  0.111111  0.333333 -0.250000      1.000000
  0.222222  0.333333 -0.250000      1.000000
  0.333333  0.333333 -0.250000      1.000000
  0.444444  0.333333 -0.250000      1.000000
 -0.444444  0.333333 -0.250000      1.000000
 -0.333333  0.333333 -0.250000      1.000000
 -0.222222  0.333333 -0.250000      1.000000
 -0.111111  0.333333 -0.250000      1.000000
  0.000000  0.444444 -0.250000      1.000000
  0.111111  0.444444 -0.250000      1.000000
  0.222222  0.444444 -0.250000      1.000000
  0.333333  0.444444 -0.250000      1.000000
  0.444444  0.444444 -0.250000      1.000000
 -0.444444  0.444444 -0.250000      1.000000
 -0.333333  0.444444 -0.250000      1.000000
 -0.222222  0.444444 -0.250000      1.000000
 -0.111111  0.444444 -0.250000      1.000000
 -0.000000 -0.444444 -0.250000      1.000000
  0.111111 -0.444444 -0.250000      1.000000
  0.222222 -0.444444 -0.250000      1.000000
  0.333333 -0.444444 -0.250000      1.000000
  0.444444 -0.444444 -0.250000      1.000000
 -0.444444 -0.444444 -0.250000      1.000000
 -0.333333 -0.444444 -0.250000      1.000000
 -0.222222 -0.444444 -0.250000      1.000000
 -0.111111 -0.444444 -0.250000      1.000000
 -0.000000 -0.333333 -0.250000      1.000000
  0.111111 -0.333333 -0.250000      1.000000
  0.222222 -0.333333 -0.250000      1.000000
  0.333333 -0.333333 -0.250000      1.000000
  0.444444 -0.333333 -0.250000      1.000000
 -0.444444 -0.333333 -0.250000      1.000000
 -0.333333 -0.333333 -0.250000      1.000000
 -0.222222 -0.333333 -0.250000      1.000000
 -0.111111 -0.333333 -0.250000      1.000000
 -0.000000 -0.222222 -0.250000      1.000000
  0.111111 -0.222222 -0.250000      1.000000
  0.222222 -0.222222 -0.250000      1.000000
  0.333333 -0.222222 -0.250000      1.000000
  0.444444 -0.222222 -0.250000      1.000000
 -0.444444 -0.222222 -0.250000      1.000000
 -0.333333 -0.222222 -0.250000      1.000000
 -0.222222 -0.222222 -0.250000      1.000000
 -0.111111 -0.222222 -0.250000      1.000000
 -0.000000 -0.111111 -0.250000      1.000000
  0.111111 -0.111111 -0.250000      1.000000
  0.222222 -0.111111 -0.250000      1.000000
  0.333333 -0.111111 -0.250000      1.000000
  0.444444 -0.111111 -0.250000      1.000000
 -0.444444 -0.111111 -0.250000      1.000000
 -0.333333 -0.111111 -0.250000      1.000000
 -0.222222 -0.111111 -0.250000      1.000000
 -0.111111 -0.111111 -0.250000      1.000000
 
 Following cartesian coordinates:
            Coordinates               Weight
  0.000000  0.000000  0.018146      1.000000
  0.021757 -0.012562  0.018146      1.000000
  0.043515 -0.025123  0.018146      1.000000
  0.065272 -0.037685  0.018146      1.000000
  0.087029 -0.050246  0.018146      1.000000
 -0.087029  0.050246  0.018146      1.000000
 -0.065272  0.037685  0.018146      1.000000
 -0.043515  0.025123  0.018146      1.000000
 -0.021757  0.012562  0.018146      1.000000
  0.021757  0.012562  0.018146      1.000000
  0.043515  0.000000  0.018146      1.000000
  0.065272 -0.012562  0.018146      1.000000
  0.087029 -0.025123  0.018146      1.000000
  0.108787 -0.037685  0.018146      1.000000
 -0.065272  0.062808  0.018146      1.000000
 -0.043515  0.050246  0.018146      1.000000
 -0.021757  0.037685  0.018146      1.000000
  0.000000  0.025123  0.018146      1.000000
  0.043515  0.025123  0.018146      1.000000
  0.065272  0.012562  0.018146      1.000000
  0.087029  0.000000  0.018146      1.000000
  0.108787 -0.012562  0.018146      1.000000
  0.130544 -0.025123  0.018146      1.000000
 -0.043515  0.075370  0.018146      1.000000
 -0.021757  0.062808  0.018146      1.000000
  0.000000  0.050246  0.018146      1.000000
  0.021757  0.037685  0.018146      1.000000
  0.065272  0.037685  0.018146      1.000000
  0.087029  0.025123  0.018146      1.000000
  0.108787  0.012562  0.018146      1.000000
  0.130544  0.000000  0.018146      1.000000
  0.152301 -0.012562  0.018146      1.000000
 -0.021757  0.087931  0.018146      1.000000
  0.000000  0.075370  0.018146      1.000000
  0.021757  0.062808  0.018146      1.000000
  0.043515  0.050246  0.018146      1.000000
  0.087029  0.050246  0.018146      1.000000
  0.108787  0.037685  0.018146      1.000000
  0.130544  0.025123  0.018146      1.000000
  0.152301  0.012562  0.018146      1.000000
  0.174059  0.000000  0.018146      1.000000
  0.000000  0.100493  0.018146      1.000000
  0.021757  0.087931  0.018146      1.000000
  0.043515  0.075370  0.018146      1.000000
  0.065272  0.062808  0.018146      1.000000
 -0.087029 -0.050246  0.018146      1.000000
 -0.065272 -0.062808  0.018146      1.000000
 -0.043515 -0.075370  0.018146      1.000000
 -0.021757 -0.087931  0.018146      1.000000
  0.000000 -0.100493  0.018146      1.000000
 -0.174059  0.000000  0.018146      1.000000
 -0.152301 -0.012562  0.018146      1.000000
 -0.130544 -0.025123  0.018146      1.000000
 -0.108787 -0.037685  0.018146      1.000000
 -0.065272 -0.037685  0.018146      1.000000
 -0.043515 -0.050246  0.018146      1.000000
 -0.021757 -0.062808  0.018146      1.000000
  0.000000 -0.075370  0.018146      1.000000
  0.021757 -0.087931  0.018146      1.000000
 -0.152301  0.012562  0.018146      1.000000
 -0.130544  0.000000  0.018146      1.000000
 -0.108787 -0.012562  0.018146      1.000000
 -0.087029 -0.025123  0.018146      1.000000
 -0.043515 -0.025123  0.018146      1.000000
 -0.021757 -0.037685  0.018146      1.000000
  0.000000 -0.050246  0.018146      1.000000
  0.021757 -0.062808  0.018146      1.000000
  0.043515 -0.075370  0.018146      1.000000
 -0.130544  0.025123  0.018146      1.000000
 -0.108787  0.012562  0.018146      1.000000
 -0.087029  0.000000  0.018146      1.000000
 -0.065272 -0.012562  0.018146      1.000000
 -0.021757 -0.012562  0.018146      1.000000
  0.000000 -0.025123  0.018146      1.000000
  0.021757 -0.037685  0.018146      1.000000
  0.043515 -0.050246  0.018146      1.000000
  0.065272 -0.062808  0.018146      1.000000
 -0.108787  0.037685  0.018146      1.000000
 -0.087029  0.025123  0.018146      1.000000
 -0.065272  0.012562  0.018146      1.000000
 -0.043515 -0.000000  0.018146      1.000000
  0.000000  0.000000 -0.018146      1.000000
  0.021757 -0.012562 -0.018146      1.000000
  0.043515 -0.025123 -0.018146      1.000000
  0.065272 -0.037685 -0.018146      1.000000
  0.087029 -0.050246 -0.018146      1.000000
 -0.087029  0.050246 -0.018146      1.000000
 -0.065272  0.037685 -0.018146      1.000000
 -0.043515  0.025123 -0.018146      1.000000
 -0.021757  0.012562 -0.018146      1.000000
  0.021757  0.012562 -0.018146      1.000000
  0.043515  0.000000 -0.018146      1.000000
  0.065272 -0.012562 -0.018146      1.000000
  0.087029 -0.025123 -0.018146      1.000000
  0.108787 -0.037685 -0.018146      1.000000
 -0.065272  0.062808 -0.018146      1.000000
 -0.043515  0.050246 -0.018146      1.000000
 -0.021757  0.037685 -0.018146      1.000000
  0.000000  0.025123 -0.018146      1.000000
  0.043515  0.025123 -0.018146      1.000000
  0.065272  0.012562 -0.018146      1.000000
  0.087029  0.000000 -0.018146      1.000000
  0.108787 -0.012562 -0.018146      1.000000
  0.130544 -0.025123 -0.018146      1.000000
 -0.043515  0.075370 -0.018146      1.000000
 -0.021757  0.062808 -0.018146      1.000000
  0.000000  0.050246 -0.018146      1.000000
  0.021757  0.037685 -0.018146      1.000000
  0.065272  0.037685 -0.018146      1.000000
  0.087029  0.025123 -0.018146      1.000000
  0.108787  0.012562 -0.018146      1.000000
  0.130544  0.000000 -0.018146      1.000000
  0.152301 -0.012562 -0.018146      1.000000
 -0.021757  0.087931 -0.018146      1.000000
  0.000000  0.075370 -0.018146      1.000000
  0.021757  0.062808 -0.018146      1.000000
  0.043515  0.050246 -0.018146      1.000000
  0.087029  0.050246 -0.018146      1.000000
  0.108787  0.037685 -0.018146      1.000000
  0.130544  0.025123 -0.018146      1.000000
  0.152301  0.012562 -0.018146      1.000000
  0.174059  0.000000 -0.018146      1.000000
  0.000000  0.100493 -0.018146      1.000000
  0.021757  0.087931 -0.018146      1.000000
  0.043515  0.075370 -0.018146      1.000000
  0.065272  0.062808 -0.018146      1.000000
 -0.087029 -0.050246 -0.018146      1.000000
 -0.065272 -0.062808 -0.018146      1.000000
 -0.043515 -0.075370 -0.018146      1.000000
 -0.021757 -0.087931 -0.018146      1.000000
  0.000000 -0.100493 -0.018146      1.000000
 -0.174059  0.000000 -0.018146      1.000000
 -0.152301 -0.012562 -0.018146      1.000000
 -0.130544 -0.025123 -0.018146      1.000000
 -0.108787 -0.037685 -0.018146      1.000000
 -0.065272 -0.037685 -0.018146      1.000000
 -0.043515 -0.050246 -0.018146      1.000000
 -0.021757 -0.062808 -0.018146      1.000000
  0.000000 -0.075370 -0.018146      1.000000
  0.021757 -0.087931 -0.018146      1.000000
 -0.152301  0.012562 -0.018146      1.000000
 -0.130544  0.000000 -0.018146      1.000000
 -0.108787 -0.012562 -0.018146      1.000000
 -0.087029 -0.025123 -0.018146      1.000000
 -0.043515 -0.025123 -0.018146      1.000000
 -0.021757 -0.037685 -0.018146      1.000000
  0.000000 -0.050246 -0.018146      1.000000
  0.021757 -0.062808 -0.018146      1.000000
  0.043515 -0.075370 -0.018146      1.000000
 -0.130544  0.025123 -0.018146      1.000000
 -0.108787  0.012562 -0.018146      1.000000
 -0.087029  0.000000 -0.018146      1.000000
 -0.065272 -0.012562 -0.018146      1.000000
 -0.021757 -0.012562 -0.018146      1.000000
  0.000000 -0.025123 -0.018146      1.000000
  0.021757 -0.037685 -0.018146      1.000000
  0.043515 -0.050246 -0.018146      1.000000
  0.065272 -0.062808 -0.018146      1.000000
 -0.108787  0.037685 -0.018146      1.000000
 -0.087029  0.025123 -0.018146      1.000000
 -0.065272  0.012562 -0.018146      1.000000
 -0.043515 -0.000000 -0.018146      1.000000
 

 ----------------------------------------------------------------------------- 
|                                                                             |
|           W    W    AA    RRRRR   N    N  II  N    N   GGGG   !!!           |
|           W    W   A  A   R    R  NN   N  II  NN   N  G    G  !!!           |
|           W    W  A    A  R    R  N N  N  II  N N  N  G       !!!           |
|           W WW W  AAAAAA  RRRRR   N  N N  II  N  N N  G  GGG   !            |
|           WW  WW  A    A  R   R   N   NN  II  N   NN  G    G                |
|           W    W  A    A  R    R  N    N  II  N    N   GGGG   !!!           |
|                                                                             |
|      The number of bands has been changed from the values supplied          |
|      in the INCAR file. This is a result of running the parallel version.   |
|      The orbitals not found in the WAVECAR file will be initialized with    |
|      random numbers, which is usually adequate. For correlated              |
|      calculations, however, you should redo the groundstate calculation.    |
|      I found NBANDS    =      198  now  NBANDS  =     208                   |
|                                                                             |
 ----------------------------------------------------------------------------- 



--------------------------------------------------------------------------------------------------------




 Dimension of arrays:
   k-points           NKPTS =    162   k-points in BZ     NKDIM =    162   number of bands    NBANDS=    208
   number of dos      NEDOS =    301   number of ions     NIONS =     30
   non local maximal  LDIM  =      5   non local SUM 2l+1 LMDIM =     15
   total plane-waves  NPLWV = 116640
   max r-space proj   IRMAX =      1   max aug-charges    IRDMAX=  26086
   dimension x,y,z NGX =    36 NGY =   36 NGZ =   90
   dimension x,y,z NGXF=    72 NGYF=   72 NGZF=  180
   support grid    NGXF=    72 NGYF=   72 NGZF=  180
   ions per type =              12  18
   NGX,Y,Z   is equivalent  to a cutoff of  11.72, 11.72, 10.86 a.u.
   NGXF,Y,Z  is equivalent  to a cutoff of  23.44, 23.44, 21.72 a.u.

 SYSTEM =  unknown system                          
 POSCAR =  Ti12 O18                                

 Startparameter for this run:
   NWRITE =      2    write-flag & timer
   PREC   = accura    normal or accurate (medium, high low for compatibility)
   ISTART =      0    job   : 0-new  1-cont  2-samecut
   ICHARG =      2    charge: 1-file 2-atom 10-const
   ISPIN  =      1    spin polarized calculation?
   LNONCOLLINEAR =      F non collinear calculations
   LSORBIT =      F    spin-orbit coupling
   INIWAV =      1    electr: 0-lowe 1-rand  2-diag
   LASPH  =      F    aspherical Exc in radial PAW
   METAGGA=      F    non-selfconsistent MetaGGA calc.

 Electronic Relaxation 1
   ENCUT  =  400.0 eV  29.40 Ry    5.42 a.u.   8.33  8.33 22.47*2*pi/ulx,y,z
   ENINI  =  400.0     initial cutoff
   ENAUG  =  605.4 eV  augmentation charge cutoff
   NELM   =     90;   NELMIN=  6; NELMDL= -5     # of ELM steps 
   EDIFF  = 0.1E-07   stopping-criterion for ELM
   LREAL  =      F    real-space projection
   NLSPLINE    = F    spline interpolate recip. space projectors
   LCOMPAT=      F    compatible to vasp.4.4
   GGA_COMPAT  = T    GGA compatible to vasp.4.4-vasp.4.6
   LMAXPAW     = -100 max onsite density
   LMAXMIX     =    2 max onsite mixed and CHGCAR
   VOSKOWN=      0    Vosko Wilk Nusair interpolation
   ROPT   =    0.00000   0.00000
 Ionic relaxation
   EDIFFG = -.1E-01   stopping-criterion for IOM
   NSW    =      0    number of steps for IOM
   NBLOCK =      1;   KBLOCK =      1    inner block; outer block 
   IBRION =     -1    ionic relax: 0-MD 1-quasi-New 2-CG
   NFREE  =      0    steps in history (QN), initial steepest desc. (CG)
   ISIF   =      2    stress and relaxation
   IWAVPR =     10    prediction:  0-non 1-charg 2-wave 3-comb
   ISYM   =     -1    0-nonsym 1-usesym 2-fastsym
   LCORR  =      T    Harris-Foulkes like correction to forces

   POTIM  = 0.5000    time-step for ionic-motion
   TEIN   =    0.0    initial temperature
   TEBEG  =    0.0;   TEEND  =   0.0 temperature during run
   SMASS  =  -3.00    Nose mass-parameter (am)
   estimated Nose-frequenzy (Omega)   =  0.10E-29 period in steps =****** mass=  -0.596E-27a.u.
   SCALEE = 1.0000    scale energy and forces
   NPACO  =    256;   APACO  = 16.0  distance and # of slots for P.C.
   PSTRESS=    0.0 pullay stress

  Mass of Ions in am
   POMASS =  47.88 16.00
  Ionic Valenz
   ZVAL   =   4.00  6.00
  Atomic Wigner-Seitz radii
   RWIGS  =  -1.00 -1.00
  virtual crystal weights 
   VCA    =   1.00  1.00
   NELECT =     156.0000    total number of electrons
   NUPDOWN=      -1.0000    fix difference up-down

 DOS related values:
   EMIN   =  10.00;   EMAX   =-10.00  energy-range for DOS
   EFERMI =   0.00
   ISMEAR =     0;   SIGMA  =   0.05  broadening in eV -4-tet -1-fermi 0-gaus

 Electronic relaxation 2 (details)
   IALGO  =     38    algorithm
   LDIAG  =      T    sub-space diagonalisation (order eigenvalues)
   LSUBROT=      F    optimize rotation matrix (better conditioning)
   TURBO    =      0    0=normal 1=particle mesh
   IRESTART =      0    0=no restart 2=restart with 2 vectors
   NREBOOT  =      0    no. of reboots
   NMIN     =      0    reboot dimension
   EREF     =   0.00    reference energy to select bands
   IMIX   =      4    mixing-type and parameters
     AMIX     =   0.40;   BMIX     =  1.00
     AMIX_MAG =   1.60;   BMIX_MAG =  1.00
     AMIN     =   0.10
     WC   =   100.;   INIMIX=   1;  MIXPRE=   1;  MAXMIX= -45

 Intra band minimization:
   WEIMIN = 0.0000     energy-eigenvalue tresh-hold
   EBREAK =  0.12E-10  absolut break condition
   DEPER  =   0.30     relativ break condition  

   TIME   =   0.40     timestep for ELM

  volume/ion in A,a.u.               =      10.37        69.99
  Fermi-wavevector in a.u.,A,eV,Ry     =   1.300529  2.457644 23.012580  1.691377
  Thomas-Fermi vector in A             =   2.431722
 
 Write flags
   LWAVE        =      T    write WAVECAR
   LDOWNSAMPLE  =      F    k-point downsampling of WAVECAR
   LCHARG       =      T    write CHGCAR
   LVTOT        =      F    write LOCPOT, total local potential
   LVHAR        =      F    write LOCPOT, Hartree potential only
   LELF         =      F    write electronic localiz. function (ELF)
   LORBIT       =      0    0 simple, 1 ext, 2 COOP (PROOUT), +10 PAW based schemes


 Dipole corrections
   LMONO  =      F    monopole corrections only (constant potential shift)
   LDIPOL =      F    correct potential (dipole corrections)
   IDIPOL =      0    1-x, 2-y, 3-z, 4-all directions 
   EPSILON=  1.0000000 bulk dielectric constant

 Exchange correlation treatment:
   GGA     =    --    GGA type
   LEXCH   =     8    internal setting for exchange type
   VOSKOWN=      0    Vosko Wilk Nusair interpolation
   LHFCALC =     F    Hartree Fock is set to
   LHFONE  =     F    Hartree Fock one center treatment
   AEXX    =    0.0000 exact exchange contribution

 Linear response parameters
   LEPSILON=     F    determine dielectric tensor
   LRPA    =     F    only Hartree local field effects (RPA)
   LNABLA  =     F    use nabla operator in PAW spheres
   LVEL    =     F    velocity operator in full k-point grid
   LINTERFAST=   F  fast interpolation
   KINTER  =     0    interpolate to denser k-point grid
   CSHIFT  =0.1000    complex shift for real part using Kramers Kronig
   OMEGAMAX=  -1.0    maximum frequency
   DEG_THRESHOLD= 0.2000000E-02 threshold for treating states as degnerate
   RTIME   =   -0.100 relaxation time in fs
  (WPLASMAI=    0.000 imaginary part of plasma frequency in eV, 0.658/RTIME)
   DFIELD  = 0.0000000 0.0000000 0.0000000 field for delta impulse in time
 
 Orbital magnetization related:
   ORBITALMAG=     F  switch on orbital magnetization
   LCHIMAG   =     F  perturbation theory with respect to B field
   DQ        =  0.001000  dq finite difference perturbation B field
   LLRAUG    =     F  two centre corrections for induced B field



--------------------------------------------------------------------------------------------------------


 Static calculation
 charge density and potential will be updated during run
 non-spin polarized calculation
 Variant of blocked Davidson
 Davidson routine will perform the subspace rotation
 perform sub-space diagonalisation
    after iterative eigenvector-optimisation
 modified Broyden-mixing scheme, WC =      100.0
 initial mixing is a Kerker type mixing with AMIX =  0.4000 and BMIX =      1.0000
 Hartree-type preconditioning will be used
 using additional bands          130
 reciprocal scheme for non local part
 use partial core corrections
 calculate Harris-corrections to forces 
   (improved forces if not selfconsistent)
 use gradient corrections 
 use of overlap-Matrix (Vanderbilt PP)
 Gauss-broadening in eV      SIGMA  =   0.05


--------------------------------------------------------------------------------------------------------


  energy-cutoff  :      400.00
  volume of cell :      311.16
      direct lattice vectors                 reciprocal lattice vectors
     2.553415321 -4.422645069  0.000000000     0.195816167 -0.113054517  0.000000000
     2.553415321  4.422645069  0.000000000     0.195816167  0.113054517  0.000000000
     0.000000000  0.000000000 13.777009152     0.000000000  0.000000000  0.072584694

  length of vectors
     5.106830642  5.106830642 13.777009152     0.226109033  0.226109033  0.072584694


 
 k-points in units of 2pi/SCALE and weight: K-Spacing Value to Generate K-Mesh: 0.03
   0.00000000  0.00000000  0.01814617       0.006
   0.02175735 -0.01256161  0.01814617       0.006
   0.04351470 -0.02512323  0.01814617       0.006
   0.06527206 -0.03768484  0.01814617       0.006
   0.08702941 -0.05024645  0.01814617       0.006
  -0.08702941  0.05024645  0.01814617       0.006
  -0.06527206  0.03768484  0.01814617       0.006
  -0.04351470  0.02512323  0.01814617       0.006
  -0.02175735  0.01256161  0.01814617       0.006
   0.02175735  0.01256161  0.01814617       0.006
   0.04351470  0.00000000  0.01814617       0.006
   0.06527206 -0.01256161  0.01814617       0.006
   0.08702941 -0.02512323  0.01814617       0.006
   0.10878676 -0.03768484  0.01814617       0.006
  -0.06527206  0.06280806  0.01814617       0.006
  -0.04351470  0.05024645  0.01814617       0.006
  -0.02175735  0.03768484  0.01814617       0.006
   0.00000000  0.02512323  0.01814617       0.006
   0.04351470  0.02512323  0.01814617       0.006
   0.06527206  0.01256161  0.01814617       0.006
   0.08702941 -0.00000000  0.01814617       0.006
   0.10878676 -0.01256161  0.01814617       0.006
   0.13054411 -0.02512323  0.01814617       0.006
  -0.04351470  0.07536968  0.01814617       0.006
  -0.02175735  0.06280806  0.01814617       0.006
   0.00000000  0.05024645  0.01814617       0.006
   0.02175735  0.03768484  0.01814617       0.006
   0.06527206  0.03768484  0.01814617       0.006
   0.08702941  0.02512323  0.01814617       0.006
   0.10878676  0.01256161  0.01814617       0.006
   0.13054411  0.00000000  0.01814617       0.006
   0.15230146 -0.01256161  0.01814617       0.006
  -0.02175735  0.08793129  0.01814617       0.006
  -0.00000000  0.07536968  0.01814617       0.006
   0.02175735  0.06280806  0.01814617       0.006
   0.04351470  0.05024645  0.01814617       0.006
   0.08702941  0.05024645  0.01814617       0.006
   0.10878676  0.03768484  0.01814617       0.006
   0.13054411  0.02512323  0.01814617       0.006
   0.15230146  0.01256161  0.01814617       0.006
   0.17405881 -0.00000000  0.01814617       0.006
   0.00000000  0.10049290  0.01814617       0.006
   0.02175735  0.08793129  0.01814617       0.006
   0.04351470  0.07536968  0.01814617       0.006
   0.06527206  0.06280806  0.01814617       0.006
  -0.08702941 -0.05024645  0.01814617       0.006
  -0.06527206 -0.06280806  0.01814617       0.006
  -0.04351470 -0.07536968  0.01814617       0.006
  -0.02175735 -0.08793129  0.01814617       0.006
  -0.00000000 -0.10049290  0.01814617       0.006
  -0.17405881  0.00000000  0.01814617       0.006
  -0.15230146 -0.01256161  0.01814617       0.006
  -0.13054411 -0.02512323  0.01814617       0.006
  -0.10878676 -0.03768484  0.01814617       0.006
  -0.06527206 -0.03768484  0.01814617       0.006
  -0.04351470 -0.05024645  0.01814617       0.006
  -0.02175735 -0.06280806  0.01814617       0.006
   0.00000000 -0.07536968  0.01814617       0.006
   0.02175735 -0.08793129  0.01814617       0.006
  -0.15230146  0.01256161  0.01814617       0.006
  -0.13054411 -0.00000000  0.01814617       0.006
  -0.10878676 -0.01256161  0.01814617       0.006
  -0.08702941 -0.02512323  0.01814617       0.006
  -0.04351470 -0.02512323  0.01814617       0.006
  -0.02175735 -0.03768484  0.01814617       0.006
  -0.00000000 -0.05024645  0.01814617       0.006
   0.02175735 -0.06280806  0.01814617       0.006
   0.04351470 -0.07536968  0.01814617       0.006
  -0.13054411  0.02512323  0.01814617       0.006
  -0.10878676  0.01256161  0.01814617       0.006
  -0.08702941  0.00000000  0.01814617       0.006
  -0.06527206 -0.01256161  0.01814617       0.006
  -0.02175735 -0.01256161  0.01814617       0.006
   0.00000000 -0.02512323  0.01814617       0.006
   0.02175735 -0.03768484  0.01814617       0.006
   0.04351470 -0.05024645  0.01814617       0.006
   0.06527206 -0.06280806  0.01814617       0.006
  -0.10878676  0.03768484  0.01814617       0.006
  -0.08702941  0.02512323  0.01814617       0.006
  -0.06527206  0.01256161  0.01814617       0.006
  -0.04351470 -0.00000000  0.01814617       0.006
   0.00000000  0.00000000 -0.01814617       0.006
   0.02175735 -0.01256161 -0.01814617       0.006
   0.04351470 -0.02512323 -0.01814617       0.006
   0.06527206 -0.03768484 -0.01814617       0.006
   0.08702941 -0.05024645 -0.01814617       0.006
  -0.08702941  0.05024645 -0.01814617       0.006
  -0.06527206  0.03768484 -0.01814617       0.006
  -0.04351470  0.02512323 -0.01814617       0.006
  -0.02175735  0.01256161 -0.01814617       0.006
   0.02175735  0.01256161 -0.01814617       0.006
   0.04351470  0.00000000 -0.01814617       0.006
   0.06527206 -0.01256161 -0.01814617       0.006
   0.08702941 -0.02512323 -0.01814617       0.006
   0.10878676 -0.03768484 -0.01814617       0.006
  -0.06527206  0.06280806 -0.01814617       0.006
  -0.04351470  0.05024645 -0.01814617       0.006
  -0.02175735  0.03768484 -0.01814617       0.006
   0.00000000  0.02512323 -0.01814617       0.006
   0.04351470  0.02512323 -0.01814617       0.006
   0.06527206  0.01256161 -0.01814617       0.006
   0.08702941 -0.00000000 -0.01814617       0.006
   0.10878676 -0.01256161 -0.01814617       0.006
   0.13054411 -0.02512323 -0.01814617       0.006
  -0.04351470  0.07536968 -0.01814617       0.006
  -0.02175735  0.06280806 -0.01814617       0.006
   0.00000000  0.05024645 -0.01814617       0.006
   0.02175735  0.03768484 -0.01814617       0.006
   0.06527206  0.03768484 -0.01814617       0.006
   0.08702941  0.02512323 -0.01814617       0.006
   0.10878676  0.01256161 -0.01814617       0.006
   0.13054411  0.00000000 -0.01814617       0.006
   0.15230146 -0.01256161 -0.01814617       0.006
  -0.02175735  0.08793129 -0.01814617       0.006
  -0.00000000  0.07536968 -0.01814617       0.006
   0.02175735  0.06280806 -0.01814617       0.006
   0.04351470  0.05024645 -0.01814617       0.006
   0.08702941  0.05024645 -0.01814617       0.006
   0.10878676  0.03768484 -0.01814617       0.006
   0.13054411  0.02512323 -0.01814617       0.006
   0.15230146  0.01256161 -0.01814617       0.006
   0.17405881 -0.00000000 -0.01814617       0.006
   0.00000000  0.10049290 -0.01814617       0.006
   0.02175735  0.08793129 -0.01814617       0.006
   0.04351470  0.07536968 -0.01814617       0.006
   0.06527206  0.06280806 -0.01814617       0.006
  -0.08702941 -0.05024645 -0.01814617       0.006
  -0.06527206 -0.06280806 -0.01814617       0.006
  -0.04351470 -0.07536968 -0.01814617       0.006
  -0.02175735 -0.08793129 -0.01814617       0.006
  -0.00000000 -0.10049290 -0.01814617       0.006
  -0.17405881  0.00000000 -0.01814617       0.006
  -0.15230146 -0.01256161 -0.01814617       0.006
  -0.13054411 -0.02512323 -0.01814617       0.006
  -0.10878676 -0.03768484 -0.01814617       0.006
  -0.06527206 -0.03768484 -0.01814617       0.006
  -0.04351470 -0.05024645 -0.01814617       0.006
  -0.02175735 -0.06280806 -0.01814617       0.006
   0.00000000 -0.07536968 -0.01814617       0.006
   0.02175735 -0.08793129 -0.01814617       0.006
  -0.15230146  0.01256161 -0.01814617       0.006
  -0.13054411 -0.00000000 -0.01814617       0.006
  -0.10878676 -0.01256161 -0.01814617       0.006
  -0.08702941 -0.02512323 -0.01814617       0.006
  -0.04351470 -0.02512323 -0.01814617       0.006
  -0.02175735 -0.03768484 -0.01814617       0.006
  -0.00000000 -0.05024645 -0.01814617       0.006
   0.02175735 -0.06280806 -0.01814617       0.006
   0.04351470 -0.07536968 -0.01814617       0.006
  -0.13054411  0.02512323 -0.01814617       0.006
  -0.10878676  0.01256161 -0.01814617       0.006
  -0.08702941  0.00000000 -0.01814617       0.006
  -0.06527206 -0.01256161 -0.01814617       0.006
  -0.02175735 -0.01256161 -0.01814617       0.006
   0.00000000 -0.02512323 -0.01814617       0.006
   0.02175735 -0.03768484 -0.01814617       0.006
   0.04351470 -0.05024645 -0.01814617       0.006
   0.06527206 -0.06280806 -0.01814617       0.006
  -0.10878676  0.03768484 -0.01814617       0.006
  -0.08702941  0.02512323 -0.01814617       0.006
  -0.06527206  0.01256161 -0.01814617       0.006
  -0.04351470 -0.00000000 -0.01814617       0.006
 
 k-points in reciprocal lattice and weights: K-Spacing Value to Generate K-Mesh: 0.03
   0.00000000  0.00000000  0.25000000       0.006
   0.11111111  0.00000000  0.25000000       0.006
   0.22222222  0.00000000  0.25000000       0.006
   0.33333333  0.00000000  0.25000000       0.006
   0.44444444  0.00000000  0.25000000       0.006
  -0.44444444 -0.00000000  0.25000000       0.006
  -0.33333333 -0.00000000  0.25000000       0.006
  -0.22222222 -0.00000000  0.25000000       0.006
  -0.11111111 -0.00000000  0.25000000       0.006
   0.00000000  0.11111111  0.25000000       0.006
   0.11111111  0.11111111  0.25000000       0.006
   0.22222222  0.11111111  0.25000000       0.006
   0.33333333  0.11111111  0.25000000       0.006
   0.44444444  0.11111111  0.25000000       0.006
  -0.44444444  0.11111111  0.25000000       0.006
  -0.33333333  0.11111111  0.25000000       0.006
  -0.22222222  0.11111111  0.25000000       0.006
  -0.11111111  0.11111111  0.25000000       0.006
   0.00000000  0.22222222  0.25000000       0.006
   0.11111111  0.22222222  0.25000000       0.006
   0.22222222  0.22222222  0.25000000       0.006
   0.33333333  0.22222222  0.25000000       0.006
   0.44444444  0.22222222  0.25000000       0.006
  -0.44444444  0.22222222  0.25000000       0.006
  -0.33333333  0.22222222  0.25000000       0.006
  -0.22222222  0.22222222  0.25000000       0.006
  -0.11111111  0.22222222  0.25000000       0.006
   0.00000000  0.33333333  0.25000000       0.006
   0.11111111  0.33333333  0.25000000       0.006
   0.22222222  0.33333333  0.25000000       0.006
   0.33333333  0.33333333  0.25000000       0.006
   0.44444444  0.33333333  0.25000000       0.006
  -0.44444444  0.33333333  0.25000000       0.006
  -0.33333333  0.33333333  0.25000000       0.006
  -0.22222222  0.33333333  0.25000000       0.006
  -0.11111111  0.33333333  0.25000000       0.006
   0.00000000  0.44444444  0.25000000       0.006
   0.11111111  0.44444444  0.25000000       0.006
   0.22222222  0.44444444  0.25000000       0.006
   0.33333333  0.44444444  0.25000000       0.006
   0.44444444  0.44444444  0.25000000       0.006
  -0.44444444  0.44444444  0.25000000       0.006
  -0.33333333  0.44444444  0.25000000       0.006
  -0.22222222  0.44444444  0.25000000       0.006
  -0.11111111  0.44444444  0.25000000       0.006
  -0.00000000 -0.44444444  0.25000000       0.006
   0.11111111 -0.44444444  0.25000000       0.006
   0.22222222 -0.44444444  0.25000000       0.006
   0.33333333 -0.44444444  0.25000000       0.006
   0.44444444 -0.44444444  0.25000000       0.006
  -0.44444444 -0.44444444  0.25000000       0.006
  -0.33333333 -0.44444444  0.25000000       0.006
  -0.22222222 -0.44444444  0.25000000       0.006
  -0.11111111 -0.44444444  0.25000000       0.006
  -0.00000000 -0.33333333  0.25000000       0.006
   0.11111111 -0.33333333  0.25000000       0.006
   0.22222222 -0.33333333  0.25000000       0.006
   0.33333333 -0.33333333  0.25000000       0.006
   0.44444444 -0.33333333  0.25000000       0.006
  -0.44444444 -0.33333333  0.25000000       0.006
  -0.33333333 -0.33333333  0.25000000       0.006
  -0.22222222 -0.33333333  0.25000000       0.006
  -0.11111111 -0.33333333  0.25000000       0.006
  -0.00000000 -0.22222222  0.25000000       0.006
   0.11111111 -0.22222222  0.25000000       0.006
   0.22222222 -0.22222222  0.25000000       0.006
   0.33333333 -0.22222222  0.25000000       0.006
   0.44444444 -0.22222222  0.25000000       0.006
  -0.44444444 -0.22222222  0.25000000       0.006
  -0.33333333 -0.22222222  0.25000000       0.006
  -0.22222222 -0.22222222  0.25000000       0.006
  -0.11111111 -0.22222222  0.25000000       0.006
  -0.00000000 -0.11111111  0.25000000       0.006
   0.11111111 -0.11111111  0.25000000       0.006
   0.22222222 -0.11111111  0.25000000       0.006
   0.33333333 -0.11111111  0.25000000       0.006
   0.44444444 -0.11111111  0.25000000       0.006
  -0.44444444 -0.11111111  0.25000000       0.006
  -0.33333333 -0.11111111  0.25000000       0.006
  -0.22222222 -0.11111111  0.25000000       0.006
  -0.11111111 -0.11111111  0.25000000       0.006
   0.00000000  0.00000000 -0.25000000       0.006
   0.11111111  0.00000000 -0.25000000       0.006
   0.22222222  0.00000000 -0.25000000       0.006
   0.33333333  0.00000000 -0.25000000       0.006
   0.44444444  0.00000000 -0.25000000       0.006
  -0.44444444 -0.00000000 -0.25000000       0.006
  -0.33333333 -0.00000000 -0.25000000       0.006
  -0.22222222 -0.00000000 -0.25000000       0.006
  -0.11111111 -0.00000000 -0.25000000       0.006
   0.00000000  0.11111111 -0.25000000       0.006
   0.11111111  0.11111111 -0.25000000       0.006
   0.22222222  0.11111111 -0.25000000       0.006
   0.33333333  0.11111111 -0.25000000       0.006
   0.44444444  0.11111111 -0.25000000       0.006
  -0.44444444  0.11111111 -0.25000000       0.006
  -0.33333333  0.11111111 -0.25000000       0.006
  -0.22222222  0.11111111 -0.25000000       0.006
  -0.11111111  0.11111111 -0.25000000       0.006
   0.00000000  0.22222222 -0.25000000       0.006
   0.11111111  0.22222222 -0.25000000       0.006
   0.22222222  0.22222222 -0.25000000       0.006
   0.33333333  0.22222222 -0.25000000       0.006
   0.44444444  0.22222222 -0.25000000       0.006
  -0.44444444  0.22222222 -0.25000000       0.006
  -0.33333333  0.22222222 -0.25000000       0.006
  -0.22222222  0.22222222 -0.25000000       0.006
  -0.11111111  0.22222222 -0.25000000       0.006
   0.00000000  0.33333333 -0.25000000       0.006
   0.11111111  0.33333333 -0.25000000       0.006
   0.22222222  0.33333333 -0.25000000       0.006
   0.33333333  0.33333333 -0.25000000       0.006
   0.44444444  0.33333333 -0.25000000       0.006
  -0.44444444  0.33333333 -0.25000000       0.006
  -0.33333333  0.33333333 -0.25000000       0.006
  -0.22222222  0.33333333 -0.25000000       0.006
  -0.11111111  0.33333333 -0.25000000       0.006
   0.00000000  0.44444444 -0.25000000       0.006
   0.11111111  0.44444444 -0.25000000       0.006
   0.22222222  0.44444444 -0.25000000       0.006
   0.33333333  0.44444444 -0.25000000       0.006
   0.44444444  0.44444444 -0.25000000       0.006
  -0.44444444  0.44444444 -0.25000000       0.006
  -0.33333333  0.44444444 -0.25000000       0.006
  -0.22222222  0.44444444 -0.25000000       0.006
  -0.11111111  0.44444444 -0.25000000       0.006
  -0.00000000 -0.44444444 -0.25000000       0.006
   0.11111111 -0.44444444 -0.25000000       0.006
   0.22222222 -0.44444444 -0.25000000       0.006
   0.33333333 -0.44444444 -0.25000000       0.006
   0.44444444 -0.44444444 -0.25000000       0.006
  -0.44444444 -0.44444444 -0.25000000       0.006
  -0.33333333 -0.44444444 -0.25000000       0.006
  -0.22222222 -0.44444444 -0.25000000       0.006
  -0.11111111 -0.44444444 -0.25000000       0.006
  -0.00000000 -0.33333333 -0.25000000       0.006
   0.11111111 -0.33333333 -0.25000000       0.006
   0.22222222 -0.33333333 -0.25000000       0.006
   0.33333333 -0.33333333 -0.25000000       0.006
   0.44444444 -0.33333333 -0.25000000       0.006
  -0.44444444 -0.33333333 -0.25000000       0.006
  -0.33333333 -0.33333333 -0.25000000       0.006
  -0.22222222 -0.33333333 -0.25000000       0.006
  -0.11111111 -0.33333333 -0.25000000       0.006
  -0.00000000 -0.22222222 -0.25000000       0.006
   0.11111111 -0.22222222 -0.25000000       0.006
   0.22222222 -0.22222222 -0.25000000       0.006
   0.33333333 -0.22222222 -0.25000000       0.006
   0.44444444 -0.22222222 -0.25000000       0.006
  -0.44444444 -0.22222222 -0.25000000       0.006
  -0.33333333 -0.22222222 -0.25000000       0.006
  -0.22222222 -0.22222222 -0.25000000       0.006
  -0.11111111 -0.22222222 -0.25000000       0.006
  -0.00000000 -0.11111111 -0.25000000       0.006
   0.11111111 -0.11111111 -0.25000000       0.006
   0.22222222 -0.11111111 -0.25000000       0.006
   0.33333333 -0.11111111 -0.25000000       0.006
   0.44444444 -0.11111111 -0.25000000       0.006
  -0.44444444 -0.11111111 -0.25000000       0.006
  -0.33333333 -0.11111111 -0.25000000       0.006
  -0.22222222 -0.11111111 -0.25000000       0.006
  -0.11111111 -0.11111111 -0.25000000       0.006
 
 position of ions in fractional coordinates (direct lattice) 
   0.33333333  0.66666667  0.01247640
   0.00000000  0.00000000  0.15419027
   0.33333333  0.66666667  0.32085694
   0.66666667  0.33333333  0.17914306
   0.00000000  0.00000000  0.34580973
   0.66666667  0.33333333  0.48752360
   0.00000000  0.00000000  0.65419027
   0.33333333  0.66666667  0.51247640
   0.66666667  0.33333333  0.67914306
   0.33333333  0.66666667  0.82085694
   0.66666667  0.33333333  0.98752360
   0.00000000  0.00000000  0.84580973
   0.31267990  0.00000000  0.25000000
   0.00000000  0.31267990  0.25000000
   0.68732010  0.68732010  0.25000000
   0.35398677  0.33333333  0.08333333
   0.66666667  0.02065343  0.08333333
   0.97934657  0.64601323  0.08333333
   0.97934657  0.33333333  0.58333333
   0.66666667  0.64601323  0.58333333
   0.35398677  0.02065343  0.58333333
   0.02065343  0.66666667  0.41666667
   0.33333333  0.35398677  0.41666667
   0.64601323  0.97934657  0.41666667
   0.64601323  0.66666667  0.91666667
   0.33333333  0.97934657  0.91666667
   0.02065343  0.35398677  0.91666667
   0.68732010  0.00000000  0.75000000
   0.00000000  0.68732010  0.75000000
   0.31267990  0.31267990  0.75000000
 
 position of ions in cartesian coordinates  (Angst):
   2.55341532  1.47421502  0.17188745
   0.00000000  0.00000000  2.12428074
   2.55341532  1.47421502  4.42044893
   2.55341532 -1.47421502  2.46805564
   0.00000000  0.00000000  4.76422383
   2.55341532 -1.47421502  6.71661713
   0.00000000  0.00000000  9.01278532
   2.55341532  1.47421502  7.06039203
   2.55341532 -1.47421502  9.35656022
   2.55341532  1.47421502 11.30895351
   2.55341532 -1.47421502 13.60512170
   0.00000000  0.00000000 11.65272841
   0.79840164 -1.38287221  3.44425229
   0.79840164  1.38287221  3.44425229
   3.51002736  0.00000000  3.44425229
   1.75501368 -0.09134281  1.14808410
   1.75501368 -2.85708723  1.14808410
   4.15021861 -1.47421502  1.14808410
   3.35181696 -2.85708723  8.03658867
   3.35181696 -0.09134281  8.03658867
   0.95661203 -1.47421502  8.03658867
   1.75501368  2.85708723  5.74042048
   1.75501368  0.09134281  5.74042048
   4.15021861  1.47421502  5.74042048
   3.35181696  0.09134281 12.62892506
   3.35181696  2.85708723 12.62892506
   0.95661203  1.47421502 12.62892506
   1.75501368 -3.03977286 10.33275686
   1.75501368  3.03977286 10.33275686
   1.59680329 -0.00000000 10.33275686
 


--------------------------------------------------------------------------------------------------------


 k-point  1 :   0.0000 0.0000 0.2500  plane waves:    5667
 k-point  2 :   0.1111 0.0000 0.2500  plane waves:    5674
 k-point  3 :   0.2222 0.0000 0.2500  plane waves:    5662
 k-point  4 :   0.3333 0.0000 0.2500  plane waves:    5642
 k-point  5 :   0.4444 0.0000 0.2500  plane waves:    5653
 k-point  6 :  -0.4444-0.0000 0.2500  plane waves:    5653
 k-point  7 :  -0.3333-0.0000 0.2500  plane waves:    5642
 k-point  8 :  -0.2222-0.0000 0.2500  plane waves:    5662
 k-point  9 :  -0.1111-0.0000 0.2500  plane waves:    5674
 k-point 10 :   0.0000 0.1111 0.2500  plane waves:    5674
 k-point 11 :   0.1111 0.1111 0.2500  plane waves:    5656
 k-point 12 :   0.2222 0.1111 0.2500  plane waves:    5638
 k-point 13 :   0.3333 0.1111 0.2500  plane waves:    5648
 k-point 14 :   0.4444 0.1111 0.2500  plane waves:    5649
 k-point 15 :  -0.4444 0.1111 0.2500  plane waves:    5648
 k-point 16 :  -0.3333 0.1111 0.2500  plane waves:    5638
 k-point 17 :  -0.2222 0.1111 0.2500  plane waves:    5656
 k-point 18 :  -0.1111 0.1111 0.2500  plane waves:    5674
 k-point 19 :   0.0000 0.2222 0.2500  plane waves:    5662
 k-point 20 :   0.1111 0.2222 0.2500  plane waves:    5638
 k-point 21 :   0.2222 0.2222 0.2500  plane waves:    5651
 k-point 22 :   0.3333 0.2222 0.2500  plane waves:    5649
 k-point 23 :   0.4444 0.2222 0.2500  plane waves:    5649
 k-point 24 :  -0.4444 0.2222 0.2500  plane waves:    5651
 k-point 25 :  -0.3333 0.2222 0.2500  plane waves:    5638
 k-point 26 :  -0.2222 0.2222 0.2500  plane waves:    5662
 k-point 27 :  -0.1111 0.2222 0.2500  plane waves:    5656
 k-point 28 :   0.0000 0.3333 0.2500  plane waves:    5642
 k-point 29 :   0.1111 0.3333 0.2500  plane waves:    5648
 k-point 30 :   0.2222 0.3333 0.2500  plane waves:    5649
 k-point 31 :   0.3333 0.3333 0.2500  plane waves:    5643
 k-point 32 :   0.4444 0.3333 0.2500  plane waves:    5649
 k-point 33 :  -0.4444 0.3333 0.2500  plane waves:    5648
 k-point 34 :  -0.3333 0.3333 0.2500  plane waves:    5642
 k-point 35 :  -0.2222 0.3333 0.2500  plane waves:    5638
 k-point 36 :  -0.1111 0.3333 0.2500  plane waves:    5638
 k-point 37 :   0.0000 0.4444 0.2500  plane waves:    5653
 k-point 38 :   0.1111 0.4444 0.2500  plane waves:    5649
 k-point 39 :   0.2222 0.4444 0.2500  plane waves:    5649
 k-point 40 :   0.3333 0.4444 0.2500  plane waves:    5649
 k-point 41 :   0.4444 0.4444 0.2500  plane waves:    5649
 k-point 42 :  -0.4444 0.4444 0.2500  plane waves:    5653
 k-point 43 :  -0.3333 0.4444 0.2500  plane waves:    5648
 k-point 44 :  -0.2222 0.4444 0.2500  plane waves:    5651
 k-point 45 :  -0.1111 0.4444 0.2500  plane waves:    5648
 k-point 46 :  -0.0000-0.4444 0.2500  plane waves:    5653
 k-point 47 :   0.1111-0.4444 0.2500  plane waves:    5648
 k-point 48 :   0.2222-0.4444 0.2500  plane waves:    5651
 k-point 49 :   0.3333-0.4444 0.2500  plane waves:    5648
 k-point 50 :   0.4444-0.4444 0.2500  plane waves:    5653
 k-point 51 :  -0.4444-0.4444 0.2500  plane waves:    5649
 k-point 52 :  -0.3333-0.4444 0.2500  plane waves:    5649
 k-point 53 :  -0.2222-0.4444 0.2500  plane waves:    5649
 k-point 54 :  -0.1111-0.4444 0.2500  plane waves:    5649
 k-point 55 :  -0.0000-0.3333 0.2500  plane waves:    5642
 k-point 56 :   0.1111-0.3333 0.2500  plane waves:    5638
 k-point 57 :   0.2222-0.3333 0.2500  plane waves:    5638
 k-point 58 :   0.3333-0.3333 0.2500  plane waves:    5642
 k-point 59 :   0.4444-0.3333 0.2500  plane waves:    5648
 k-point 60 :  -0.4444-0.3333 0.2500  plane waves:    5649
 k-point 61 :  -0.3333-0.3333 0.2500  plane waves:    5643
 k-point 62 :  -0.2222-0.3333 0.2500  plane waves:    5649
 k-point 63 :  -0.1111-0.3333 0.2500  plane waves:    5648
 k-point 64 :  -0.0000-0.2222 0.2500  plane waves:    5662
 k-point 65 :   0.1111-0.2222 0.2500  plane waves:    5656
 k-point 66 :   0.2222-0.2222 0.2500  plane waves:    5662
 k-point 67 :   0.3333-0.2222 0.2500  plane waves:    5638
 k-point 68 :   0.4444-0.2222 0.2500  plane waves:    5651
 k-point 69 :  -0.4444-0.2222 0.2500  plane waves:    5649
 k-point 70 :  -0.3333-0.2222 0.2500  plane waves:    5649
 k-point 71 :  -0.2222-0.2222 0.2500  plane waves:    5651
 k-point 72 :  -0.1111-0.2222 0.2500  plane waves:    5638
 k-point 73 :  -0.0000-0.1111 0.2500  plane waves:    5674
 k-point 74 :   0.1111-0.1111 0.2500  plane waves:    5674
 k-point 75 :   0.2222-0.1111 0.2500  plane waves:    5656
 k-point 76 :   0.3333-0.1111 0.2500  plane waves:    5638
 k-point 77 :   0.4444-0.1111 0.2500  plane waves:    5648
 k-point 78 :  -0.4444-0.1111 0.2500  plane waves:    5649
 k-point 79 :  -0.3333-0.1111 0.2500  plane waves:    5648
 k-point 80 :  -0.2222-0.1111 0.2500  plane waves:    5638
 k-point 81 :  -0.1111-0.1111 0.2500  plane waves:    5656
 k-point 82 :   0.0000 0.0000-0.2500  plane waves:    5667
 k-point 83 :   0.1111 0.0000-0.2500  plane waves:    5674
 k-point 84 :   0.2222 0.0000-0.2500  plane waves:    5662
 k-point 85 :   0.3333 0.0000-0.2500  plane waves:    5642
 k-point 86 :   0.4444 0.0000-0.2500  plane waves:    5653
 k-point 87 :  -0.4444-0.0000-0.2500  plane waves:    5653
 k-point 88 :  -0.3333-0.0000-0.2500  plane waves:    5642
 k-point 89 :  -0.2222-0.0000-0.2500  plane waves:    5662
 k-point 90 :  -0.1111-0.0000-0.2500  plane waves:    5674
 k-point 91 :   0.0000 0.1111-0.2500  plane waves:    5674
 k-point 92 :   0.1111 0.1111-0.2500  plane waves:    5656
 k-point 93 :   0.2222 0.1111-0.2500  plane waves:    5638
 k-point 94 :   0.3333 0.1111-0.2500  plane waves:    5648
 k-point 95 :   0.4444 0.1111-0.2500  plane waves:    5649
 k-point 96 :  -0.4444 0.1111-0.2500  plane waves:    5648
 k-point 97 :  -0.3333 0.1111-0.2500  plane waves:    5638
 k-point 98 :  -0.2222 0.1111-0.2500  plane waves:    5656
 k-point 99 :  -0.1111 0.1111-0.2500  plane waves:    5674
 k-point ** :   0.0000 0.2222-0.2500  plane waves:    5662
 k-point ** :   0.1111 0.2222-0.2500  plane waves:    5638
 k-point ** :   0.2222 0.2222-0.2500  plane waves:    5651
 k-point ** :   0.3333 0.2222-0.2500  plane waves:    5649
 k-point ** :   0.4444 0.2222-0.2500  plane waves:    5649
 k-point ** :  -0.4444 0.2222-0.2500  plane waves:    5651
 k-point ** :  -0.3333 0.2222-0.2500  plane waves:    5638
 k-point ** :  -0.2222 0.2222-0.2500  plane waves:    5662
 k-point ** :  -0.1111 0.2222-0.2500  plane waves:    5656
 k-point ** :   0.0000 0.3333-0.2500  plane waves:    5642
 k-point ** :   0.1111 0.3333-0.2500  plane waves:    5648
 k-point ** :   0.2222 0.3333-0.2500  plane waves:    5649
 k-point ** :   0.3333 0.3333-0.2500  plane waves:    5643
 k-point ** :   0.4444 0.3333-0.2500  plane waves:    5649
 k-point ** :  -0.4444 0.3333-0.2500  plane waves:    5648
 k-point ** :  -0.3333 0.3333-0.2500  plane waves:    5642
 k-point ** :  -0.2222 0.3333-0.2500  plane waves:    5638
 k-point ** :  -0.1111 0.3333-0.2500  plane waves:    5638
 k-point ** :   0.0000 0.4444-0.2500  plane waves:    5653
 k-point ** :   0.1111 0.4444-0.2500  plane waves:    5649
 k-point ** :   0.2222 0.4444-0.2500  plane waves:    5649
 k-point ** :   0.3333 0.4444-0.2500  plane waves:    5649
 k-point ** :   0.4444 0.4444-0.2500  plane waves:    5649
 k-point ** :  -0.4444 0.4444-0.2500  plane waves:    5653
 k-point ** :  -0.3333 0.4444-0.2500  plane waves:    5648
 k-point ** :  -0.2222 0.4444-0.2500  plane waves:    5651
 k-point ** :  -0.1111 0.4444-0.2500  plane waves:    5648
 k-point ** :  -0.0000-0.4444-0.2500  plane waves:    5653
 k-point ** :   0.1111-0.4444-0.2500  plane waves:    5648
 k-point ** :   0.2222-0.4444-0.2500  plane waves:    5651
 k-point ** :   0.3333-0.4444-0.2500  plane waves:    5648
 k-point ** :   0.4444-0.4444-0.2500  plane waves:    5653
 k-point ** :  -0.4444-0.4444-0.2500  plane waves:    5649
 k-point ** :  -0.3333-0.4444-0.2500  plane waves:    5649
 k-point ** :  -0.2222-0.4444-0.2500  plane waves:    5649
 k-point ** :  -0.1111-0.4444-0.2500  plane waves:    5649
 k-point ** :  -0.0000-0.3333-0.2500  plane waves:    5642
 k-point ** :   0.1111-0.3333-0.2500  plane waves:    5638
 k-point ** :   0.2222-0.3333-0.2500  plane waves:    5638
 k-point ** :   0.3333-0.3333-0.2500  plane waves:    5642
 k-point ** :   0.4444-0.3333-0.2500  plane waves:    5648
 k-point ** :  -0.4444-0.3333-0.2500  plane waves:    5649
 k-point ** :  -0.3333-0.3333-0.2500  plane waves:    5643
 k-point ** :  -0.2222-0.3333-0.2500  plane waves:    5649
 k-point ** :  -0.1111-0.3333-0.2500  plane waves:    5648
 k-point ** :  -0.0000-0.2222-0.2500  plane waves:    5662
 k-point ** :   0.1111-0.2222-0.2500  plane waves:    5656
 k-point ** :   0.2222-0.2222-0.2500  plane waves:    5662
 k-point ** :   0.3333-0.2222-0.2500  plane waves:    5638
 k-point ** :   0.4444-0.2222-0.2500  plane waves:    5651
 k-point ** :  -0.4444-0.2222-0.2500  plane waves:    5649
 k-point ** :  -0.3333-0.2222-0.2500  plane waves:    5649
 k-point ** :  -0.2222-0.2222-0.2500  plane waves:    5651
 k-point ** :  -0.1111-0.2222-0.2500  plane waves:    5638
 k-point ** :  -0.0000-0.1111-0.2500  plane waves:    5674
 k-point ** :   0.1111-0.1111-0.2500  plane waves:    5674
 k-point ** :   0.2222-0.1111-0.2500  plane waves:    5656
 k-point ** :   0.3333-0.1111-0.2500  plane waves:    5638
 k-point ** :   0.4444-0.1111-0.2500  plane waves:    5648
 k-point ** :  -0.4444-0.1111-0.2500  plane waves:    5649
 k-point ** :  -0.3333-0.1111-0.2500  plane waves:    5648
 k-point ** :  -0.2222-0.1111-0.2500  plane waves:    5638
 k-point ** :  -0.1111-0.1111-0.2500  plane waves:    5656

 maximum and minimum number of plane-waves per node :      5674     5638

 maximum number of plane-waves:      5674
 maximum index in each direction: 
   IXMAX=    8   IYMAX=    8   IZMAX=   22
   IXMIN=   -8   IYMIN=   -8   IZMIN=  -22


 serial   3D FFT for wavefunctions
 parallel 3D FFT for charge:
    minimum data exchange during FFTs selected (reduces bandwidth)


 total amount of memory used by VASP MPI-rank0   467580. kBytes
=======================================================================

   base      :      30000. kBytes
   nonl-proj :     223564. kBytes
   fftplans  :       2634. kBytes
   grid      :       8343. kBytes
   one-center:        324. kBytes
   wavefun   :     202715. kBytes
 
     INWAV:  cpu time    0.0000: real time    0.0000
 Broyden mixing: mesh for mixing (old mesh)
   NGX = 17   NGY = 17   NGZ = 45
  (NGX  = 72   NGY  = 72   NGZ  =180)
  gives a total of  13005 points

 initial charge density was supplied:
 charge density of overlapping atoms calculated
 number of electron     156.0000000 magnetization 
 keeping initial charge density in first step


--------------------------------------------------------------------------------------------------------


 Maximum index for augmentation-charges         2050 (set IRDMAX)


--------------------------------------------------------------------------------------------------------


 First call to EWALD:  gamma=   0.262
 Maximum number of real-space cells 4x 4x 2
 Maximum number of reciprocal cells 2x 2x 5

    FEWALD:  cpu time    0.0023: real time    0.0023


--------------------------------------- Iteration      1(   1)  ---------------------------------------


    POTLOK:  cpu time    0.0326: real time    0.0330
    SETDIJ:  cpu time    0.0056: real time    0.0056
     EDDAV:  cpu time   42.7066: real time   42.7569
       DOS:  cpu time    0.0073: real time    0.0073
    --------------------------------------------
      LOOP:  cpu time   42.7521: real time   42.8029

 eigenvalue-minimisations  : 67392
 total energy-change (2. order) : 0.1326269E+04  (-0.4444976E+04)
 number of electron     156.0000000 magnetization 
 augmentation part      156.0000000 magnetization 

 Free energy of the ion-electron system (eV)
  ---------------------------------------------------
  alpha Z        PSCENC =       739.05072767
  Ewald energy   TEWEN  =     -7574.34864658
  -Hartree energ DENC   =     -2028.64093336
  -exchange      EXHF   =         0.00000000
  -V(xc)+E(xc)   XCENC  =        56.48454909
  PAW double counting   =      7744.08000813    -7290.88659083
  entropy T*S    EENTRO =        -0.01604418
  eigenvalues    EBANDS =       762.30090395
  atomic energy  EATOM  =      8918.24473510
  Solvation  Ediel_sol  =         0.00000000
  ---------------------------------------------------
  free energy    TOTEN  =      1326.26870899 eV

  energy without entropy =     1326.28475317  energy(sigma->0) =     1326.27673108


--------------------------------------------------------------------------------------------------------




--------------------------------------- Iteration      1(   2)  ---------------------------------------


     EDDAV:  cpu time   41.9022: real time   41.9501
       DOS:  cpu time    0.0061: real time    0.0061
    --------------------------------------------
      LOOP:  cpu time   41.9083: real time   41.9562

 eigenvalue-minimisations  : 67408
 total energy-change (2. order) :-0.1451630E+04  (-0.1227007E+04)
 number of electron     156.0000000 magnetization 
 augmentation part      156.0000000 magnetization 

 Free energy of the ion-electron system (eV)
  ---------------------------------------------------
  alpha Z        PSCENC =       739.05072767
  Ewald energy   TEWEN  =     -7574.34864658
  -Hartree energ DENC   =     -2028.64093336
  -exchange      EXHF   =         0.00000000
  -V(xc)+E(xc)   XCENC  =        56.48454909
  PAW double counting   =      7744.08000813    -7290.88659083
  entropy T*S    EENTRO =        -0.01637883
  eigenvalues    EBANDS =      -689.32882309
  atomic energy  EATOM  =      8918.24473510
  Solvation  Ediel_sol  =         0.00000000
  ---------------------------------------------------
  free energy    TOTEN  =      -125.36135270 eV

  energy without entropy =     -125.34497387  energy(sigma->0) =     -125.35316328


--------------------------------------------------------------------------------------------------------




--------------------------------------- Iteration      1(   3)  ---------------------------------------


     EDDAV:  cpu time   45.8465: real time   45.9036
       DOS:  cpu time    0.0068: real time    0.0068
    --------------------------------------------
      LOOP:  cpu time   45.8534: real time   45.9104

 eigenvalue-minimisations  : 74000
 total energy-change (2. order) :-0.2007817E+03  (-0.1886505E+03)
 number of electron     156.0000000 magnetization 
 augmentation part      156.0000000 magnetization 

 Free energy of the ion-electron system (eV)
  ---------------------------------------------------
  alpha Z        PSCENC =       739.05072767
  Ewald energy   TEWEN  =     -7574.34864658
  -Hartree energ DENC   =     -2028.64093336
  -exchange      EXHF   =         0.00000000
  -V(xc)+E(xc)   XCENC  =        56.48454909
  PAW double counting   =      7744.08000813    -7290.88659083
  entropy T*S    EENTRO =        -0.02062053
  eigenvalues    EBANDS =      -890.10624591
  atomic energy  EATOM  =      8918.24473510
  Solvation  Ediel_sol  =         0.00000000
  ---------------------------------------------------
  free energy    TOTEN  =      -326.14301722 eV

  energy without entropy =     -326.12239669  energy(sigma->0) =     -326.13270695


--------------------------------------------------------------------------------------------------------




--------------------------------------- Iteration      1(   4)  ---------------------------------------


     EDDAV:  cpu time   44.6647: real time   44.7161
       DOS:  cpu time    0.0059: real time    0.0059
    --------------------------------------------
      LOOP:  cpu time   44.6706: real time   44.7219

 eigenvalue-minimisations  : 73488
 total energy-change (2. order) :-0.5862556E+01  (-0.5804668E+01)
 number of electron     156.0000000 magnetization 
 augmentation part      156.0000000 magnetization 

 Free energy of the ion-electron system (eV)
  ---------------------------------------------------
  alpha Z        PSCENC =       739.05072767
  Ewald energy   TEWEN  =     -7574.34864658
  -Hartree energ DENC   =     -2028.64093336
  -exchange      EXHF   =         0.00000000
  -V(xc)+E(xc)   XCENC  =        56.48454909
  PAW double counting   =      7744.08000813    -7290.88659083
  entropy T*S    EENTRO =        -0.02134413
  eigenvalues    EBANDS =      -895.96807860
  atomic energy  EATOM  =      8918.24473510
  Solvation  Ediel_sol  =         0.00000000
  ---------------------------------------------------
  free energy    TOTEN  =      -332.00557350 eV

  energy without entropy =     -331.98422938  energy(sigma->0) =     -331.99490144


--------------------------------------------------------------------------------------------------------




--------------------------------------- Iteration      1(   5)  ---------------------------------------


     EDDAV:  cpu time   44.1249: real time   44.1741
       DOS:  cpu time    0.0058: real time    0.0058
    CHARGE:  cpu time    0.9364: real time    0.9373
    MIXING:  cpu time    0.0012: real time    0.0012
    --------------------------------------------
      LOOP:  cpu time   45.0684: real time   45.1183

 eigenvalue-minimisations  : 72480
 total energy-change (2. order) :-0.4159472E-01  (-0.4159181E-01)
 number of electron     156.0000108 magnetization 
 augmentation part       22.4939365 magnetization 

 Broyden mixing:
  rms(total) = 0.81737E+01    rms(broyden)= 0.81731E+01
  rms(prec ) = 0.87212E+01
  weight for this iteration     100.00

 Free energy of the ion-electron system (eV)
  ---------------------------------------------------
  alpha Z        PSCENC =       739.05072767
  Ewald energy   TEWEN  =     -7574.34864658
  -Hartree energ DENC   =     -2028.64093336
  -exchange      EXHF   =         0.00000000
  -V(xc)+E(xc)   XCENC  =        56.48454909
  PAW double counting   =      7744.08000813    -7290.88659083
  entropy T*S    EENTRO =        -0.02134443
  eigenvalues    EBANDS =      -896.00967302
  atomic energy  EATOM  =      8918.24473510
  Solvation  Ediel_sol  =         0.00000000
  ---------------------------------------------------
  free energy    TOTEN  =      -332.04716822 eV

  energy without entropy =     -332.02582380  energy(sigma->0) =     -332.03649601


--------------------------------------------------------------------------------------------------------




--------------------------------------- Iteration      1(   6)  ---------------------------------------


    POTLOK:  cpu time    0.0251: real time    0.0259
    SETDIJ:  cpu time    0.0051: real time    0.0054
     EDDAV:  cpu time   53.3582: real time   53.4166
       DOS:  cpu time    0.0058: real time    0.0058
    CHARGE:  cpu time    0.9602: real time    0.9609
    MIXING:  cpu time    0.0011: real time    0.0011
    --------------------------------------------
      LOOP:  cpu time   54.3555: real time   54.4156

 eigenvalue-minimisations  : 93424
 total energy-change (2. order) : 0.6117904E+02  (-0.7489253E+01)
 number of electron     156.0000074 magnetization 
 augmentation part       24.7686588 magnetization 

 Broyden mixing:
  rms(total) = 0.29796E+01    rms(broyden)= 0.29779E+01
  rms(prec ) = 0.30747E+01
  weight for this iteration     100.00

 eigenvalues of (default mixing * dielectric matrix)
  average eigenvalue GAMMA=   1.0755
  1.0755

 Free energy of the ion-electron system (eV)
  ---------------------------------------------------
  alpha Z        PSCENC =       739.05072767
  Ewald energy   TEWEN  =     -7574.34864658
  -Hartree energ DENC   =     -2397.76507784
  -exchange      EXHF   =         0.00000000
  -V(xc)+E(xc)   XCENC  =        88.52253270
  PAW double counting   =     10454.05574059   -10001.30756575
  entropy T*S    EENTRO =        -0.01317295
  eigenvalues    EBANDS =      -497.30740102
  atomic energy  EATOM  =      8918.24473510
  Solvation  Ediel_sol  =         0.00000000
  ---------------------------------------------------
  free energy    TOTEN  =      -270.86812808 eV

  energy without entropy =     -270.85495514  energy(sigma->0) =     -270.86154161


--------------------------------------------------------------------------------------------------------




--------------------------------------- Iteration      1(   7)  ---------------------------------------


    POTLOK:  cpu time    0.0239: real time    0.0239
    SETDIJ:  cpu time    0.0051: real time    0.0060
     EDDAV:  cpu time   46.6324: real time   46.6740
       DOS:  cpu time    0.0058: real time    0.0058
    CHARGE:  cpu time    0.9594: real time    0.9598
    MIXING:  cpu time    0.0010: real time    0.0010
    --------------------------------------------
      LOOP:  cpu time   47.6276: real time   47.6706

 eigenvalue-minimisations  : 79184
 total energy-change (2. order) : 0.1941558E+01  (-0.1479538E+01)
 number of electron     156.0000083 magnetization 
 augmentation part       23.5910811 magnetization 

 Broyden mixing:
  rms(total) = 0.24609E+01    rms(broyden)= 0.24609E+01
  rms(prec ) = 0.25042E+01
  weight for this iteration     100.00

 eigenvalues of (default mixing * dielectric matrix)
  average eigenvalue GAMMA=   2.0689
  0.7887  3.3491

 Free energy of the ion-electron system (eV)
  ---------------------------------------------------
  alpha Z        PSCENC =       739.05072767
  Ewald energy   TEWEN  =     -7574.34864658
  -Hartree energ DENC   =     -2290.92389576
  -exchange      EXHF   =         0.00000000
  -V(xc)+E(xc)   XCENC  =        80.94050033
  PAW double counting   =     11840.90403924   -11390.92207100
  entropy T*S    EENTRO =        -0.01594642
  eigenvalues    EBANDS =      -591.85601221
  atomic energy  EATOM  =      8918.24473510
[...]
     50      -0.7265      2.00000
     51      -0.6155      2.00000
     52      -0.3315      2.00000
     53      -0.1917      2.00000
     54      -0.1036      2.00000
     55       0.0925      2.00000
     56       0.1607      2.00000
     57       0.1691      2.00000
     58       0.2200      2.00000
     59       0.2447      2.00000
     60       0.3881      2.00000
     61       0.4236      2.00000
     62       0.4445      2.00000
     63       0.5943      2.00000
     64       0.6219      2.00000
     65       0.7014      2.00000
     66       0.7108      2.00000
     67       0.7626      2.00000
     68       0.8494      2.00000
     69       1.0177      2.00000
     70       1.0445      2.00000
     71       1.0952      2.00000
     72       1.2291      2.00000
     73       4.4281      2.00000
     74       4.7545      2.00000
     75       4.8587      2.00000
     76       4.9489      2.00000
     77       5.0940      1.99722
     78       5.1224      1.97146
     79       5.2156      0.65428
     80       5.3205      0.00064
     81       5.4000      0.00000
     82       5.5119      0.00000
     83       5.5360      0.00000
     84       5.5465      0.00000
     85       5.6556      0.00000
     86       5.6672      0.00000
     87       5.6708      0.00000
     88       5.7164      0.00000
     89       5.7290      0.00000
     90       5.7706      0.00000
     91       5.7892      0.00000
     92       5.8377      0.00000
     93       5.8543      0.00000
     94       5.9873      0.00000
     95       6.0232      0.00000
     96       6.0988      0.00000
     97       6.1958      0.00000
     98       6.2634      0.00000
     99       6.2836      0.00000
    100       6.3031      0.00000
    101       6.3299      0.00000
    102       6.3715      0.00000
    103       6.5203      0.00000
    104       6.6698      0.00000
    105       6.6895      0.00000
    106       6.8346      0.00000
    107       7.0645      0.00000
    108       7.2447      0.00000
    109       7.6694      0.00000
    110       7.7057      0.00000
    111       7.7472      0.00000
    112       7.8232      0.00000
    113       7.8585      0.00000
    114       7.9215      0.00000
    115       7.9558      0.00000
    116       7.9673      0.00000
    117       8.0191      0.00000
    118       8.1324      0.00000
    119       8.2433      0.00000
    120       8.2719      0.00000
    121       8.4157      0.00000
    122       8.5296      0.00000
    123       8.5973      0.00000
    124       8.8331      0.00000
    125       8.8615      0.00000
    126       8.8649      0.00000
    127       8.9727      0.00000
    128       9.0418      0.00000
    129       9.0483      0.00000
    130       9.1917      0.00000
    131       9.2191      0.00000
    132       9.2927      0.00000
    133       9.5211      0.00000
    134      10.2057      0.00000
    135      11.1538      0.00000
    136      11.9415      0.00000
    137      12.4446      0.00000
    138      12.7561      0.00000
    139      14.2083      0.00000
    140      14.2162      0.00000
    141      14.2551      0.00000
    142      14.3861      0.00000
    143      14.6602      0.00000
    144      14.6970      0.00000
    145      15.1245      0.00000
    146      15.2625      0.00000
    147      15.6113      0.00000
    148      15.7689      0.00000
    149      15.8916      0.00000
    150      16.0814      0.00000
    151      16.2255      0.00000
    152      16.3614      0.00000
    153      16.4141      0.00000
    154      16.5031      0.00000
    155      16.8582      0.00000
    156      16.9086      0.00000
    157      17.0339      0.00000
    158      17.1495      0.00000
    159      17.3996      0.00000
    160      17.4534      0.00000
    161      17.8951      0.00000
    162      17.9649      0.00000
    163      18.2678      0.00000
    164      18.2957      0.00000
    165      18.3041      0.00000
    166      18.3987      0.00000
    167      18.4535      0.00000
    168      18.4793      0.00000
    169      18.5042      0.00000
    170      18.6837      0.00000
    171      18.7139      0.00000
    172      18.7437      0.00000
    173      18.8762      0.00000
    174      19.0877      0.00000
    175      19.1209      0.00000
    176      19.1495      0.00000
    177      19.2271      0.00000
    178      19.7664      0.00000
    179      19.8982      0.00000
    180      19.9788      0.00000
    181      20.0686      0.00000
    182      20.6827      0.00000
    183      20.7607      0.00000
    184      20.8011      0.00000
    185      20.8808      0.00000
    186      21.1423      0.00000
    187      21.4063      0.00000
    188      21.5319      0.00000
    189      21.9974      0.00000
    190      22.0205      0.00000
    191      22.0978      0.00000
    192      22.2799      0.00000
    193      22.7463      0.00000
    194      22.7951      0.00000
    195      23.1228      0.00000
    196      23.2025      0.00000
    197      23.3161      0.00000
    198      23.5634      0.00000
    199      23.7799      0.00000
    200      23.8867      0.00000
    201      24.0336      0.00000
    202      24.2495      0.00000
    203      24.4514      0.00000
    204      24.7643      0.00000
    205      25.0645      0.00000
    206      25.1224      0.00000
    207      25.6202      0.00000
    208      25.6755      0.00000


--------------------------------------------------------------------------------------------------------


 soft charge-density along one line, spin component           1
         0         1         2         3         4         5         6         7         8         9
 total charge-density along one line
 
 pseudopotential strength for first ion, spin component:           1
 -3.500   0.007   0.000   0.001  -0.000  -3.479   0.008   0.000
  0.007  -3.422   0.000   0.000   0.001   0.008  -3.387   0.000
  0.000   0.000  -3.385   0.000  -0.000   0.000   0.000  -3.343
  0.001   0.000   0.000  -3.422  -0.007   0.001   0.000   0.000
 -0.000   0.001  -0.000  -0.007  -3.500  -0.000   0.001  -0.000
 -3.479   0.008   0.000   0.001  -0.000  -3.332   0.009   0.000
  0.008  -3.387   0.000   0.000   0.001   0.009  -3.223   0.000
  0.000   0.000  -3.343   0.000  -0.000   0.000   0.000  -3.171
  0.001   0.000   0.000  -3.387  -0.008   0.001   0.000   0.000
 -0.000   0.001  -0.000  -0.008  -3.479  -0.000   0.001  -0.000
  0.000  -0.000  -0.018  -0.000  -0.000   0.000  -0.000  -0.022
 -0.000   0.000   0.037   0.000   0.000  -0.000   0.000   0.044
 -0.001  -0.017  -0.000  -0.000   0.003  -0.001  -0.019  -0.000
 -0.000   0.000  -0.027  -0.000  -0.000  -0.000   0.000  -0.031
  0.003  -0.000  -0.000  -0.017   0.001   0.004  -0.000  -0.000
 total augmentation occupancy for first ion, spin component:           1
  6.448  -4.025   0.000   0.358   0.000  -4.444   2.968  -0.000  -0.243   0.000  -0.000   0.000  -0.265   0.000   0.141
 -4.025   8.565   0.000   0.000   0.358   2.967  -6.013  -0.000   0.000  -0.241   0.000  -0.000   0.073   0.000   0.024
  0.000   0.000   4.080   0.000  -0.000  -0.000  -0.000  -2.432  -0.000   0.000  -0.100  -0.014   0.000  -0.423  -0.000
  0.358   0.000   0.000   8.565   4.025  -0.241  -0.000  -0.000  -6.013  -2.967   0.000  -0.000  -0.024   0.000   0.073
  0.000   0.358  -0.000   4.025   6.448  -0.000  -0.243   0.000  -2.968  -4.444  -0.000   0.000   0.141   0.000   0.265
 -4.444   2.967  -0.000  -0.241  -0.000   3.177  -2.145   0.000   0.169  -0.000   0.000  -0.000   0.193  -0.000  -0.103
  2.968  -6.013  -0.000  -0.000  -0.243  -2.145   4.298   0.000   0.000   0.169  -0.000   0.000  -0.051  -0.000  -0.011
 -0.000  -0.000  -2.432  -0.000   0.000   0.000   0.000   1.711   0.000  -0.000   0.118   0.011  -0.000   0.300   0.000
 -0.243   0.000  -0.000  -6.013  -2.968   0.169   0.000   0.000   4.298   2.145  -0.000   0.000   0.011  -0.000  -0.051
  0.000  -0.241   0.000  -2.967  -4.444  -0.000   0.169  -0.000   2.145   3.177   0.000  -0.000  -0.103  -0.000  -0.193
 -0.000   0.000  -0.100   0.000  -0.000   0.000  -0.000   0.118  -0.000   0.000   1.976   0.142   0.000  -0.038   0.000
  0.000  -0.000  -0.014  -0.000   0.000  -0.000   0.000   0.011   0.000  -0.000   0.142   0.014  -0.000  -0.004  -0.000
 -0.265   0.073   0.000  -0.024   0.141   0.193  -0.051  -0.000   0.011  -0.103   0.000  -0.000   0.455   0.000  -0.000
  0.000   0.000  -0.423   0.000   0.000  -0.000  -0.000   0.300  -0.000  -0.000  -0.038  -0.004   0.000   0.441   0.000
  0.141   0.024  -0.000   0.073   0.265  -0.103  -0.011   0.000  -0.051  -0.193   0.000  -0.000  -0.000   0.000   0.455


------------------------ aborting loop because EDIFF is reached ----------------------------------------


    CHARGE:  cpu time    0.9214: real time    0.9218
    FORLOC:  cpu time    0.0086: real time    0.0086
    FORNL :  cpu time   19.5696: real time   19.5774
    STRESS:  cpu time   25.1725: real time   25.1863
    FORCOR:  cpu time    0.0330: real time    0.0330
    FORHAR:  cpu time    0.0123: real time    0.0123
    MIXING:  cpu time    0.0018: real time    0.0018
    OFIELD:  cpu time    0.0000: real time    0.0000

  FORCE on cell =-STRESS in cart. coord.  units (eV):
  Direction    XX          YY          ZZ          XY          YZ          ZX
  --------------------------------------------------------------------------------------
  Alpha Z   739.05073   739.05073   739.05073
  Ewald   -2509.29955 -2509.29955 -2555.77727     0.00000     0.00000    -0.00000
  Hartree   766.03472   766.03473   785.15475    -0.00000     0.00000    -0.00000
  E(xc)    -736.61276  -736.61273  -742.96727    -0.00000    -0.00000    -0.00000
  Local    -686.36374  -686.36250  -671.99441     0.00000    -0.00000     0.00000
  n-local  -450.01954  -450.01964  -467.53717     0.00000     0.00000    -0.00000
  augment   186.46531   186.46431   195.09714    -0.00000     0.00000     0.00000
  Kinetic  2688.17244  2688.17261  2721.25202     0.00000     0.00000     0.00000
  Fock        0.00000     0.00000     0.00000     0.00000     0.00000     0.00000
  -------------------------------------------------------------------------------------
  Total      -2.57239    -2.57205     2.27851     0.00000     0.00000     0.00000
  in kB     -13.24523   -13.24346    11.73204     0.00000     0.00001     0.00000
  external pressure =       -4.92 kB  Pullay stress =        0.00 kB


 VOLUME and BASIS-vectors are now :
 -----------------------------------------------------------------------------
  energy-cutoff  :      400.00
  volume of cell :      311.16
      direct lattice vectors                 reciprocal lattice vectors
     2.553415321 -4.422645069  0.000000000     0.195816167 -0.113054517  0.000000000
     2.553415321  4.422645069  0.000000000     0.195816167  0.113054517  0.000000000
     0.000000000  0.000000000 13.777009152     0.000000000  0.000000000  0.072584694

  length of vectors
     5.106830642  5.106830642 13.777009152     0.226109033  0.226109033  0.072584694


 FORCES acting on ions
    electron-ion (+dipol)            ewald-force                    non-local-force                 convergence-correction
 -----------------------------------------------------------------------------------------------
   -.518E-06 -.792E-08 -.234E+02   -.521E-13 0.138E-10 0.244E+02   -.391E-06 -.147E-06 -.100E+01   0.294E-07 0.319E-07 -.946E-04
   -.426E-06 -.630E-07 0.234E+02   -.304E-13 0.365E-11 -.244E+02   -.422E-06 0.152E-06 0.100E+01   0.213E-07 0.571E-07 -.670E-04
   0.494E-06 0.924E-08 0.234E+02   0.782E-13 0.102E-10 -.244E+02   0.403E-06 0.164E-06 0.100E+01   -.139E-07 -.474E-07 -.617E-04
   0.438E-06 0.492E-07 -.234E+02   0.486E-13 -.102E-10 0.244E+02   0.398E-06 -.168E-06 -.100E+01   -.649E-08 -.254E-07 -.569E-04
   -.514E-06 0.854E-08 -.234E+02   -.314E-13 -.365E-11 0.244E+02   -.379E-06 -.155E-06 -.100E+01   0.213E-07 0.189E-07 -.391E-04
   -.394E-06 -.769E-07 0.234E+02   -.795E-13 -.138E-10 -.244E+02   -.408E-06 0.184E-06 0.100E+01   -.350E-07 0.348E-07 -.853E-05
   0.526E-06 0.354E-08 0.234E+02   0.711E-13 0.365E-11 -.244E+02   0.386E-06 0.156E-06 0.100E+01   -.281E-07 -.373E-07 0.120E-03
   0.397E-06 0.797E-07 -.234E+02   0.460E-13 0.137E-10 0.244E+02   0.402E-06 -.184E-06 -.100E+01   0.243E-07 -.435E-07 0.222E-04
   -.515E-06 0.497E-08 -.234E+02   -.391E-13 -.102E-10 0.244E+02   -.371E-06 -.156E-06 -.100E+01   0.133E-07 0.191E-07 0.158E-03
   -.430E-06 -.821E-07 0.234E+02   -.604E-13 0.102E-10 -.244E+02   -.416E-06 0.202E-06 0.100E+01   0.168E-07 0.249E-07 0.638E-04
   0.549E-06 0.157E-07 0.234E+02   0.886E-13 -.138E-10 -.244E+02   0.399E-06 0.168E-06 0.100E+01   -.660E-07 -.604E-07 -.102E-03
   0.408E-06 0.686E-07 -.234E+02   0.355E-13 -.369E-11 0.244E+02   0.386E-06 -.205E-06 -.100E+01   0.417E-07 -.797E-08 0.582E-04
   -.166E+02 0.288E+02 -.246E-04   0.188E+02 -.326E+02 0.389E-11   -.222E+01 0.385E+01 0.360E-05   -.636E-04 -.443E-04 0.332E-04
   -.166E+02 -.288E+02 -.252E-04   0.188E+02 0.326E+02 -.395E-11   -.222E+01 -.385E+01 0.404E-05   0.702E-04 -.330E-04 0.332E-04
   0.332E+02 -.736E-04 -.248E-04   -.377E+02 0.251E-14 -.213E-13   0.444E+01 0.427E-05 0.383E-05   -.660E-05 0.772E-04 0.332E-04
   0.166E+02 -.288E+02 0.206E-03   -.188E+02 0.326E+02 -.456E-10   0.222E+01 -.385E+01 -.112E-05   -.157E-04 0.939E-04 -.213E-03
   0.166E+02 0.288E+02 0.206E-03   -.188E+02 -.326E+02 -.487E-10   0.222E+01 0.385E+01 -.155E-05   -.736E-04 -.603E-04 -.213E-03
   -.332E+02 0.284E-04 0.206E-03   0.377E+02 -.659E-11 -.587E-10   -.444E+01 -.314E-05 -.134E-05   0.891E-04 -.335E-04 -.213E-03
   -.166E+02 0.288E+02 -.178E-03   0.188E+02 -.326E+02 -.464E-10   -.222E+01 0.385E+01 0.268E-05   0.837E-05 -.608E-04 0.185E-03
   -.166E+02 -.288E+02 -.178E-03   0.188E+02 0.326E+02 -.457E-10   -.222E+01 -.385E+01 0.310E-05   0.485E-04 0.377E-04 0.185E-03
   0.332E+02 -.219E-04 -.178E-03   -.377E+02 -.510E-11 -.563E-10   0.444E+01 0.414E-05 0.289E-05   -.569E-04 0.231E-04 0.185E-03
   0.166E+02 -.288E+02 0.162E-03   -.188E+02 0.326E+02 0.486E-10   0.222E+01 -.385E+01 -.124E-05   0.455E-04 0.106E-03 -.171E-03
   0.166E+02 0.288E+02 0.162E-03   -.188E+02 -.326E+02 0.455E-10   0.222E+01 0.385E+01 -.165E-05   -.114E-03 -.134E-04 -.171E-03
   -.332E+02 0.846E-04 0.162E-03   0.377E+02 0.764E-11 0.587E-10   -.444E+01 -.152E-05 -.145E-05   0.686E-04 -.922E-04 -.171E-03
   -.166E+02 0.288E+02 0.381E-04   0.188E+02 -.326E+02 0.456E-10   -.222E+01 0.385E+01 0.452E-05   -.142E-04 -.238E-04 -.386E-04
   -.166E+02 -.288E+02 0.374E-04   0.188E+02 0.326E+02 0.464E-10   -.222E+01 -.385E+01 0.493E-05   0.277E-04 -.476E-06 -.385E-04
   0.332E+02 -.262E-04 0.378E-04   -.377E+02 0.618E-11 0.565E-10   0.444E+01 0.138E-06 0.470E-05   -.134E-04 0.242E-04 -.385E-04
   0.166E+02 -.288E+02 -.200E-03   -.188E+02 0.326E+02 -.375E-11   0.222E+01 -.385E+01 -.756E-05   -.741E-04 0.835E-04 0.203E-03
   0.166E+02 0.288E+02 -.199E-03   -.188E+02 -.326E+02 0.392E-11   0.222E+01 0.385E+01 -.798E-05   -.352E-04 -.106E-03 0.203E-03
   -.332E+02 -.251E-04 -.200E-03   0.377E+02 0.777E-14 0.995E-13   -.444E+01 -.850E-06 -.779E-05   0.109E-03 0.225E-04 0.203E-03
 -----------------------------------------------------------------------------------------------
   0.121E-06 -.161E-06 0.221E-04   0.000E+00 0.777E-14 0.854E-13   0.682E-07 -.369E-07 -.584E-05   -.115E-06 0.133E-06 -.145E-04
 
 
 POSITION                                       TOTAL-FORCE (eV/Angst)
 -----------------------------------------------------------------------------------
      2.55342      1.47422      0.17189        -0.000001     -0.000000     -0.004695
      0.00000      0.00000      2.12428        -0.000001      0.000000      0.004699
      2.55342      1.47422      4.42045         0.000001      0.000000      0.004701
      2.55342     -1.47422      2.46806         0.000001     -0.000000     -0.004708
      0.00000      0.00000      4.76422        -0.000001     -0.000000     -0.004699
      2.55342     -1.47422      6.71662        -0.000001      0.000000      0.004708
      0.00000      0.00000      9.01279         0.000001      0.000000      0.004703
      2.55342      1.47422      7.06039         0.000001     -0.000000     -0.004705
      2.55342     -1.47422      9.35656        -0.000001     -0.000000     -0.004707
      2.55342      1.47422     11.30895        -0.000001      0.000000      0.004698
      2.55342     -1.47422     13.60512         0.000001      0.000000      0.004705
      0.00000      0.00000     11.65273         0.000001     -0.000000     -0.004705
      0.79840     -1.38287      3.44425        -0.000350      0.000591      0.000012
      0.79840      1.38287      3.44425        -0.000336     -0.000599      0.000012
      3.51003      0.00000      3.44425         0.000686      0.000008      0.000012
      1.75501     -0.09134      1.14808         0.000347     -0.000584     -0.000009
      1.75501     -2.85709      1.14808         0.000332      0.000592     -0.000009
      4.15022     -1.47422      1.14808        -0.000678     -0.000008     -0.000009
      3.35182     -2.85709      8.03659        -0.000346      0.000588      0.000010
      3.35182     -0.09134      8.03659        -0.000336     -0.000593      0.000010
      0.95661     -1.47422      8.03659         0.000681      0.000005      0.000010
      1.75501      2.85709      5.74042         0.000351     -0.000591     -0.000011
      1.75501      0.09134      5.74042         0.000335      0.000600     -0.000011
      4.15022      1.47422      5.74042        -0.000686     -0.000009     -0.000011
      3.35182      0.09134     12.62893        -0.000344      0.000599      0.000004
      3.35182      2.85709     12.62893        -0.000347     -0.000597      0.000004
      0.95661      1.47422     12.62893         0.000689     -0.000002      0.000004
      1.75501     -3.03977     10.33276         0.000348     -0.000595     -0.000005
      1.75501      3.03977     10.33276         0.000342      0.000599     -0.000004
      1.59680     -0.00000     10.33276        -0.000688     -0.000003     -0.000005
 -----------------------------------------------------------------------------------
    total drift:                                0.000000     -0.000000      0.000002


--------------------------------------------------------------------------------------------------------



  FREE ENERGIE OF THE ION-ELECTRON SYSTEM (eV)
  ---------------------------------------------------
  free  energy   TOTEN  =      -267.80479959 eV

  energy  without entropy=     -267.79263784  energy(sigma->0) =     -267.79871871
 


--------------------------------------------------------------------------------------------------------


    POTLOK:  cpu time    0.0330: real time    0.0330


--------------------------------------------------------------------------------------------------------


 writing wavefunctions
     LOOP+:  cpu time 1134.5615: real time 1135.6142
    4ORBIT:  cpu time    0.0000: real time    0.0000

 total amount of memory used by VASP MPI-rank0   467580. kBytes
=======================================================================

   base      :      30000. kBytes
   nonl-proj :     223564. kBytes
   fftplans  :       2634. kBytes
   grid      :       8343. kBytes
   one-center:        324. kBytes
   wavefun   :     202715. kBytes
 
  
  
 General timing and accounting informations for this job:
 ========================================================
  
                  Total CPU time used (sec):     1150.688
                            User time (sec):     1144.449
                          System time (sec):        6.240
                         Elapsed time (sec):     1152.069
  
                   Maximum memory used (kb):      706952.
                   Average memory used (kb):           0.
  
                          Minor page faults:      2240282
                          Major page faults:            0
                 Voluntary context switches:          633
