<?xml version="1.0" encoding="ISO-8859-1"?>
<modeling>
 <generator>
  <i name="program" type="string">vasp </i>
  <i name="version" type="string">5.4.4.18Apr17-6-g9f103f2a35  </i>
  <i name="subversion" type="string">(build Jul 11 2019 11:52:51) complex            parallel </i>
  <i name="platform" type="string">LinuxIFC </i>
  <i name="date" type="string">2024 08 29 </i>
  <i name="time" type="string">21:15:24 </i>
 </generator>
 <incar>
  <i type="int" name="ISTART">     0</i>
  <i type="string" name="PREC">accurate</i>
  <i type="int" name="NELM">    90</i>
  <i type="int" name="NELMIN">     6</i>
  <i type="int" name="IBRION">    -1</i>
  <i name="EDIFF">      0.00000001</i>
  <i name="EDIFFG">     -0.01000000</i>
  <i type="int" name="NSW">     0</i>
  <i type="int" name="ISIF">     2</i>
  <i type="int" name="ISYM">    -1</i>
  <i name="ENCUT">    400.00000000</i>
  <i type="int" name="NBANDS">   198</i>
  <i type="int" name="ISMEAR">     0</i>
  <i name="SIGMA">      0.05000000</i>
  <i type="logical" name="LWAVE"> T  </i>
  <v type="int" name="KPOINT_BSE">    -1     0     0     0</v>
  <i type="int" name="NELM">    90</i>
 </incar>
 <structure name="primitive_cell" >
  <crystal>
   <varray name="basis" >
    <v>       2.55341532      -4.42264507       0.00000000 </v>
    <v>       2.55341532       4.42264507       0.00000000 </v>
    <v>       0.00000000       0.00000000      13.77700915 </v>
   </varray>
   <i name="volume">    311.16338672 </i>
   <varray name="rec_basis" >
    <v>       0.19581617      -0.11305452       0.00000000 </v>
    <v>       0.19581617       0.11305452       0.00000000 </v>
    <v>       0.00000000       0.00000000       0.07258469 </v>
   </varray>
  </crystal>
  <varray name="positions" >
   <v>       0.33333333      -0.33333333       0.01247640 </v>
   <v>       0.35398677       0.33333333       0.08333333 </v>
   <v>      -0.33333333       0.02065343       0.08333333 </v>
   <v>      -0.02065343      -0.35398677       0.08333333 </v>
   <v>      -0.35398677      -0.33333333      -0.08333333 </v>
   <v>       0.02065343       0.35398677      -0.08333333 </v>
   <v>       0.33333333      -0.02065343      -0.08333333 </v>
   <v>       0.33333333      -0.33333333      -0.17914306 </v>
   <v>      -0.33333333       0.33333333      -0.01247640 </v>
   <v>       0.00000000       0.00000000       0.15419027 </v>
   <v>      -0.31267990      -0.31267990       0.25000000 </v>
   <v>       0.00000000       0.31267990       0.25000000 </v>
   <v>       0.31267990       0.00000000       0.25000000 </v>
   <v>      -0.33333333       0.33333333       0.17914306 </v>
   <v>       0.00000000       0.00000000      -0.15419027 </v>
   <v>       0.31267990       0.31267990      -0.25000000 </v>
   <v>      -0.31267990       0.00000000      -0.25000000 </v>
   <v>       0.00000000      -0.31267990      -0.25000000 </v>
   <v>       0.33333333      -0.33333333       0.32085694 </v>
   <v>       0.00000000       0.00000000       0.34580973 </v>
   <v>      -0.33333333       0.33333333      -0.32085694 </v>
   <v>       0.00000000       0.00000000      -0.34580973 </v>
   <v>       0.33333333       0.35398677       0.41666667 </v>
   <v>      -0.35398677      -0.02065343       0.41666667 </v>
   <v>       0.02065343      -0.33333333       0.41666667 </v>
   <v>      -0.33333333      -0.35398677      -0.41666667 </v>
   <v>      -0.02065343       0.33333333      -0.41666667 </v>
   <v>       0.35398677       0.02065343      -0.41666667 </v>
   <v>       0.33333333      -0.33333333      -0.48752360 </v>
   <v>      -0.33333333       0.33333333       0.48752360 </v>
  </varray>
 </structure>
 <varray name="primitive_index" >
  <v type="int" >        1 </v>
  <v type="int" >       16 </v>
  <v type="int" >       17 </v>
  <v type="int" >       18 </v>
  <v type="int" >       25 </v>
  <v type="int" >       27 </v>
  <v type="int" >       26 </v>
  <v type="int" >       10 </v>
  <v type="int" >       11 </v>
  <v type="int" >        2 </v>
  <v type="int" >       15 </v>
  <v type="int" >       14 </v>
  <v type="int" >       13 </v>
  <v type="int" >        4 </v>
  <v type="int" >       12 </v>
  <v type="int" >       30 </v>
  <v type="int" >       28 </v>
  <v type="int" >       29 </v>
  <v type="int" >        3 </v>
  <v type="int" >        5 </v>
  <v type="int" >        9 </v>
  <v type="int" >        7 </v>
  <v type="int" >       23 </v>
  <v type="int" >       24 </v>
  <v type="int" >       22 </v>
  <v type="int" >       20 </v>
  <v type="int" >       19 </v>
  <v type="int" >       21 </v>
  <v type="int" >        8 </v>
  <v type="int" >        6 </v>
 </varray>
 <kpoints>
  <generation param="Monkhorst-Pack">
   <v type="int" name="divisions">       9        9        2 </v>
   <v name="usershift">      0.00000000       0.00000000       0.00000000 </v>
   <v name="genvec1">      0.11111111       0.00000000       0.00000000 </v>
   <v name="genvec2">      0.00000000       0.11111111       0.00000000 </v>
   <v name="genvec3">      0.00000000       0.00000000       0.50000000 </v>
   <v name="shift">      0.00000000       0.00000000       0.50000000 </v>
  </generation>
  <varray name="kpointlist" >
   <v>       0.00000000       0.00000000       0.25000000 </v>
   <v>       0.11111111       0.00000000       0.25000000 </v>
   <v>       0.22222222       0.00000000       0.25000000 </v>
   <v>       0.33333333       0.00000000       0.25000000 </v>
   <v>       0.44444444       0.00000000       0.25000000 </v>
   <v>      -0.44444444      -0.00000000       0.25000000 </v>
   <v>      -0.33333333      -0.00000000       0.25000000 </v>
   <v>      -0.22222222      -0.00000000       0.25000000 </v>
   <v>      -0.11111111      -0.00000000       0.25000000 </v>
   <v>       0.00000000       0.11111111       0.25000000 </v>
   <v>       0.11111111       0.11111111       0.25000000 </v>
   <v>       0.22222222       0.11111111       0.25000000 </v>
   <v>       0.33333333       0.11111111       0.25000000 </v>
   <v>       0.44444444       0.11111111       0.25000000 </v>
   <v>      -0.44444444       0.11111111       0.25000000 </v>
   <v>      -0.33333333       0.11111111       0.25000000 </v>
   <v>      -0.22222222       0.11111111       0.25000000 </v>
   <v>      -0.11111111       0.11111111       0.25000000 </v>
   <v>       0.00000000       0.22222222       0.25000000 </v>
   <v>       0.11111111       0.22222222       0.25000000 </v>
   <v>       0.22222222       0.22222222       0.25000000 </v>
   <v>       0.33333333       0.22222222       0.25000000 </v>
   <v>       0.44444444       0.22222222       0.25000000 </v>
   <v>      -0.44444444       0.22222222       0.25000000 </v>
   <v>      -0.33333333       0.22222222       0.25000000 </v>
   <v>      -0.22222222       0.22222222       0.25000000 </v>
   <v>      -0.11111111       0.22222222       0.25000000 </v>
   <v>       0.00000000       0.33333333       0.25000000 </v>
   <v>       0.11111111       0.33333333       0.25000000 </v>
   <v>       0.22222222       0.33333333       0.25000000 </v>
   <v>       0.33333333       0.33333333       0.25000000 </v>
   <v>       0.44444444       0.33333333       0.25000000 </v>
   <v>      -0.44444444       0.33333333       0.25000000 </v>
   <v>      -0.33333333       0.33333333       0.25000000 </v>
   <v>      -0.22222222       0.33333333       0.25000000 </v>
   <v>      -0.11111111       0.33333333       0.25000000 </v>
   <v>       0.00000000       0.44444444       0.25000000 </v>
   <v>       0.11111111       0.44444444       0.25000000 </v>
   <v>       0.22222222       0.44444444       0.25000000 </v>
   <v>       0.33333333       0.44444444       0.25000000 </v>
   <v>       0.44444444       0.44444444       0.25000000 </v>
   <v>      -0.44444444       0.44444444       0.25000000 </v>
   <v>      -0.33333333       0.44444444       0.25000000 </v>
   <v>      -0.22222222       0.44444444       0.25000000 </v>
   <v>      -0.11111111       0.44444444       0.25000000 </v>
   <v>      -0.00000000      -0.44444444       0.25000000 </v>
   <v>       0.11111111      -0.44444444       0.25000000 </v>
   <v>       0.22222222      -0.44444444       0.25000000 </v>
   <v>       0.33333333      -0.44444444       0.25000000 </v>
   <v>       0.44444444      -0.44444444       0.25000000 </v>
   <v>      -0.44444444      -0.44444444       0.25000000 </v>
   <v>      -0.33333333      -0.44444444       0.25000000 </v>
   <v>      -0.22222222      -0.44444444       0.25000000 </v>
   <v>      -0.11111111      -0.44444444       0.25000000 </v>
   <v>      -0.00000000      -0.33333333       0.25000000 </v>
   <v>       0.11111111      -0.33333333       0.25000000 </v>
   <v>       0.22222222      -0.33333333       0.25000000 </v>
   <v>       0.33333333      -0.33333333       0.25000000 </v>
   <v>       0.44444444      -0.33333333       0.25000000 </v>
   <v>      -0.44444444      -0.33333333       0.25000000 </v>
   <v>      -0.33333333      -0.33333333       0.25000000 </v>
   <v>      -0.22222222      -0.33333333       0.25000000 </v>
   <v>      -0.11111111      -0.33333333       0.25000000 </v>
   <v>      -0.00000000      -0.22222222       0.25000000 </v>
   <v>       0.11111111      -0.22222222       0.25000000 </v>
   <v>       0.22222222      -0.22222222       0.25000000 </v>
   <v>       0.33333333      -0.22222222       0.25000000 </v>
   <v>       0.44444444      -0.22222222       0.25000000 </v>
   <v>      -0.44444444      -0.22222222       0.25000000 </v>
   <v>      -0.33333333      -0.22222222       0.25000000 </v>
   <v>      -0.22222222      -0.22222222       0.25000000 </v>
   <v>      -0.11111111      -0.22222222       0.25000000 </v>
   <v>      -0.00000000      -0.11111111       0.25000000 </v>
   <v>       0.11111111      -0.11111111       0.25000000 </v>
   <v>       0.22222222      -0.11111111       0.25000000 </v>
   <v>       0.33333333      -0.11111111       0.25000000 </v>
   <v>       0.44444444      -0.11111111       0.25000000 </v>
   <v>      -0.44444444      -0.11111111       0.25000000 </v>
   <v>      -0.33333333      -0.11111111       0.25000000 </v>
   <v>      -0.22222222      -0.11111111       0.25000000 </v>
   <v>      -0.11111111      -0.11111111       0.25000000 </v>
   <v>       0.00000000       0.00000000      -0.25000000 </v>
   <v>       0.11111111       0.00000000      -0.25000000 </v>
   <v>       0.22222222       0.00000000      -0.25000000 </v>
   <v>       0.33333333       0.00000000      -0.25000000 </v>
   <v>       0.44444444       0.00000000      -0.25000000 </v>
   <v>      -0.44444444      -0.00000000      -0.25000000 </v>
   <v>      -0.33333333      -0.00000000      -0.25000000 </v>
   <v>      -0.22222222      -0.00000000      -0.25000000 </v>
   <v>      -0.11111111      -0.00000000      -0.25000000 </v>
   <v>       0.00000000       0.11111111      -0.25000000 </v>
   <v>       0.11111111       0.11111111      -0.25000000 </v>
   <v>       0.22222222       0.11111111      -0.25000000 </v>
   <v>       0.33333333       0.11111111      -0.25000000 </v>
   <v>       0.44444444       0.11111111      -0.25000000 </v>
   <v>      -0.44444444       0.11111111      -0.25000000 </v>
   <v>      -0.33333333       0.11111111      -0.25000000 </v>
   <v>      -0.22222222       0.11111111      -0.25000000 </v>
   <v>      -0.11111111       0.11111111      -0.25000000 </v>
   <v>       0.00000000       0.22222222      -0.25000000 </v>
   <v>       0.11111111       0.22222222      -0.25000000 </v>
   <v>       0.22222222       0.22222222      -0.25000000 </v>
   <v>       0.33333333       0.22222222      -0.25000000 </v>
   <v>       0.44444444       0.22222222      -0.25000000 </v>
   <v>      -0.44444444       0.22222222      -0.25000000 </v>
   <v>      -0.33333333       0.22222222      -0.25000000 </v>
   <v>      -0.22222222       0.22222222      -0.25000000 </v>
   <v>      -0.11111111       0.22222222      -0.25000000 </v>
   <v>       0.00000000       0.33333333      -0.25000000 </v>
   <v>       0.11111111       0.33333333      -0.25000000 </v>
   <v>       0.22222222       0.33333333      -0.25000000 </v>
   <v>       0.33333333       0.33333333      -0.25000000 </v>
   <v>       0.44444444       0.33333333      -0.25000000 </v>
   <v>      -0.44444444       0.33333333      -0.25000000 </v>
   <v>      -0.33333333       0.33333333      -0.25000000 </v>
   <v>      -0.22222222       0.33333333      -0.25000000 </v>
   <v>      -0.11111111       0.33333333      -0.25000000 </v>
   <v>       0.00000000       0.44444444      -0.25000000 </v>
   <v>       0.11111111       0.44444444      -0.25000000 </v>
   <v>       0.22222222       0.44444444      -0.25000000 </v>
   <v>       0.33333333       0.44444444      -0.25000000 </v>
   <v>       0.44444444       0.44444444      -0.25000000 </v>
   <v>      -0.44444444       0.44444444      -0.25000000 </v>
   <v>      -0.33333333       0.44444444      -0.25000000 </v>
   <v>      -0.22222222       0.44444444      -0.25000000 </v>
   <v>      -0.11111111       0.44444444      -0.25000000 </v>
   <v>      -0.00000000      -0.44444444      -0.25000000 </v>
   <v>       0.11111111      -0.44444444      -0.25000000 </v>
   <v>       0.22222222      -0.44444444      -0.25000000 </v>
   <v>       0.33333333      -0.44444444      -0.25000000 </v>
   <v>       0.44444444      -0.44444444      -0.25000000 </v>
   <v>      -0.44444444      -0.44444444      -0.25000000 </v>
   <v>      -0.33333333      -0.44444444      -0.25000000 </v>
   <v>      -0.22222222      -0.44444444      -0.25000000 </v>
   <v>      -0.11111111      -0.44444444      -0.25000000 </v>
   <v>      -0.00000000      -0.33333333      -0.25000000 </v>
   <v>       0.11111111      -0.33333333      -0.25000000 </v>
   <v>       0.22222222      -0.33333333      -0.25000000 </v>
   <v>       0.33333333      -0.33333333      -0.25000000 </v>
   <v>       0.44444444      -0.33333333      -0.25000000 </v>
   <v>      -0.44444444      -0.33333333      -0.25000000 </v>
   <v>      -0.33333333      -0.33333333      -0.25000000 </v>
   <v>      -0.22222222      -0.33333333      -0.25000000 </v>
   <v>      -0.11111111      -0.33333333      -0.25000000 </v>
   <v>      -0.00000000      -0.22222222      -0.25000000 </v>
   <v>       0.11111111      -0.22222222      -0.25000000 </v>
   <v>       0.22222222      -0.22222222      -0.25000000 </v>
   <v>       0.33333333      -0.22222222      -0.25000000 </v>
   <v>       0.44444444      -0.22222222      -0.25000000 </v>
   <v>      -0.44444444      -0.22222222      -0.25000000 </v>
   <v>      -0.33333333      -0.22222222      -0.25000000 </v>
   <v>      -0.22222222      -0.22222222      -0.25000000 </v>
   <v>      -0.11111111      -0.22222222      -0.25000000 </v>
   <v>      -0.00000000      -0.11111111      -0.25000000 </v>
   <v>       0.11111111      -0.11111111      -0.25000000 </v>
   <v>       0.22222222      -0.11111111      -0.25000000 </v>
   <v>       0.33333333      -0.11111111      -0.25000000 </v>
   <v>       0.44444444      -0.11111111      -0.25000000 </v>
   <v>      -0.44444444      -0.11111111      -0.25000000 </v>
   <v>      -0.33333333      -0.11111111      -0.25000000 </v>
   <v>      -0.22222222      -0.11111111      -0.25000000 </v>
   <v>      -0.11111111      -0.11111111      -0.25000000 </v>
  </varray>
  <varray name="weights" >
   <v>       0.00617284 </v>
   <v>       0.00617284 </v>
   <v>       0.00617284 </v>
   <v>       0.00617284 </v>
   <v>       0.00617284 </v>
   <v>       0.00617284 </v>
   <v>       0.00617284 </v>
   <v>       0.00617284 </v>
   <v>       0.00617284 </v>
   <v>       0.00617284 </v>
   <v>       0.00617284 </v>
   <v>       0.00617284 </v>
   <v>       0.00617284 </v>
   <v>       0.00617284 </v>
   <v>       0.00617284 </v>
   <v>       0.00617284 </v>
   <v>       0.00617284 </v>
   <v>       0.00617284 </v>
   <v>       0.00617284 </v>
   <v>       0.00617284 </v>
   <v>       0.00617284 </v>
   <v>       0.00617284 </v>
   <v>       0.00617284 </v>
   <v>       0.00617284 </v>
   <v>       0.00617284 </v>
   <v>       0.00617284 </v>
   <v>       0.00617284 </v>
   <v>       0.00617284 </v>
   <v>       0.00617284 </v>
   <v>       0.00617284 </v>
   <v>       0.00617284 </v>
   <v>       0.00617284 </v>
   <v>       0.00617284 </v>
   <v>       0.00617284 </v>
   <v>       0.00617284 </v>
   <v>       0.00617284 </v>
   <v>       0.00617284 </v>
   <v>       0.00617284 </v>
   <v>       0.00617284 </v>
   <v>       0.00617284 </v>
   <v>       0.00617284 </v>
   <v>       0.00617284 </v>
   <v>       0.00617284 </v>
   <v>       0.00617284 </v>
   <v>       0.00617284 </v>
   <v>       0.00617284 </v>
   <v>       0.00617284 </v>
   <v>       0.00617284 </v>
   <v>       0.00617284 </v>
   <v>       0.00617284 </v>
   <v>       0.00617284 </v>
   <v>       0.00617284 </v>
   <v>       0.00617284 </v>
   <v>       0.00617284 </v>
   <v>       0.00617284 </v>
   <v>       0.00617284 </v>
   <v>       0.00617284 </v>
   <v>       0.00617284 </v>
   <v>       0.00617284 </v>
   <v>       0.00617284 </v>
   <v>       0.00617284 </v>
   <v>       0.00617284 </v>
   <v>       0.00617284 </v>
   <v>       0.00617284 </v>
   <v>       0.00617284 </v>
   <v>       0.00617284 </v>
   <v>       0.00617284 </v>
   <v>       0.00617284 </v>
   <v>       0.00617284 </v>
   <v>       0.00617284 </v>
   <v>       0.00617284 </v>
   <v>       0.00617284 </v>
   <v>       0.00617284 </v>
   <v>       0.00617284 </v>
   <v>       0.00617284 </v>
   <v>       0.00617284 </v>
   <v>       0.00617284 </v>
   <v>       0.00617284 </v>
   <v>       0.00617284 </v>
   <v>       0.00617284 </v>
   <v>       0.00617284 </v>
   <v>       0.00617284 </v>
   <v>       0.00617284 </v>
   <v>       0.00617284 </v>
   <v>       0.00617284 </v>
   <v>       0.00617284 </v>
   <v>       0.00617284 </v>
   <v>       0.00617284 </v>
   <v>       0.00617284 </v>
   <v>       0.00617284 </v>
   <v>       0.00617284 </v>
   <v>       0.00617284 </v>
   <v>       0.00617284 </v>
   <v>       0.00617284 </v>
   <v>       0.00617284 </v>
   <v>       0.00617284 </v>
   <v>       0.00617284 </v>
   <v>       0.00617284 </v>
   <v>       0.00617284 </v>
   <v>       0.00617284 </v>
   <v>       0.00617284 </v>
   <v>       0.00617284 </v>
   <v>       0.00617284 </v>
   <v>       0.00617284 </v>
   <v>       0.00617284 </v>
   <v>       0.00617284 </v>
   <v>       0.00617284 </v>
   <v>       0.00617284 </v>
   <v>       0.00617284 </v>
   <v>       0.00617284 </v>
   <v>       0.00617284 </v>
   <v>       0.00617284 </v>
   <v>       0.00617284 </v>
   <v>       0.00617284 </v>
   <v>       0.00617284 </v>
   <v>       0.00617284 </v>
   <v>       0.00617284 </v>
   <v>       0.00617284 </v>
   <v>       0.00617284 </v>
   <v>       0.00617284 </v>
   <v>       0.00617284 </v>
   <v>       0.00617284 </v>
   <v>       0.00617284 </v>
   <v>       0.00617284 </v>
   <v>       0.00617284 </v>
   <v>       0.00617284 </v>
   <v>       0.00617284 </v>
   <v>       0.00617284 </v>
   <v>       0.00617284 </v>
   <v>       0.00617284 </v>
   <v>       0.00617284 </v>
   <v>       0.00617284 </v>
   <v>       0.00617284 </v>
   <v>       0.00617284 </v>
   <v>       0.00617284 </v>
   <v>       0.00617284 </v>
   <v>       0.00617284 </v>
   <v>       0.00617284 </v>
   <v>       0.00617284 </v>
   <v>       0.00617284 </v>
   <v>       0.00617284 </v>
   <v>       0.00617284 </v>
   <v>       0.00617284 </v>
   <v>       0.00617284 </v>
   <v>       0.00617284 </v>
   <v>       0.00617284 </v>
   <v>       0.00617284 </v>
   <v>       0.00617284 </v>
   <v>       0.00617284 </v>
   <v>       0.00617284 </v>
   <v>       0.00617284 </v>
   <v>       0.00617284 </v>
   <v>       0.00617284 </v>
   <v>       0.00617284 </v>
   <v>       0.00617284 </v>
   <v>       0.00617284 </v>
   <v>       0.00617284 </v>
   <v>       0.00617284 </v>
   <v>       0.00617284 </v>
   <v>       0.00617284 </v>
   <v>       0.00617284 </v>
   <v>       0.00617284 </v>
  </varray>
 </kpoints>
 <parameters>
  <separator name="general" >
   <i type="string" name="SYSTEM">unknown system</i>
   <i type="logical" name="LCOMPAT"> F  </i>
  </separator>
  <separator name="electronic" >
   <i type="string" name="PREC">accura</i>
   <i name="ENMAX">    400.00000000</i>
   <i name="ENAUG">    605.39200000</i>
   <i name="EDIFF">      0.00000001</i>
   <i type="int" name="IALGO">    38</i>
   <i type="int" name="IWAVPR">    10</i>
   <i type="int" name="NBANDS">   208</i>
   <i name="NELECT">    156.00000000</i>
   <i type="int" name="TURBO">     0</i>
   <i type="int" name="IRESTART">     0</i>
   <i type="int" name="NREBOOT">     0</i>
   <i type="int" name="NMIN">     0</i>
   <i name="EREF">      0.00000000</i>
   <separator name="electronic smearing" >
    <i type="int" name="ISMEAR">     0</i>
    <i name="SIGMA">      0.05000000</i>
    <i name="KSPACING">      0.50000000</i>
    <i type="logical" name="KGAMMA"> T  </i>
   </separator>
   <separator name="electronic projectors" >
    <i type="logical" name="LREAL"> F  </i>
    <v name="ROPT">      0.00000000      0.00000000</v>
    <i type="int" name="LMAXPAW">  -100</i>
    <i type="int" name="LMAXMIX">     2</i>
    <i type="logical" name="NLSPLINE"> F  </i>
   </separator>
   <separator name="electronic startup" >
    <i type="int" name="ISTART">     0</i>
    <i type="int" name="ICHARG">     2</i>
    <i type="int" name="INIWAV">     1</i>
   </separator>
   <separator name="electronic spin" >
    <i type="int" name="ISPIN">     1</i>
    <i type="logical" name="LNONCOLLINEAR"> F  </i>
    <v name="MAGMOM">      1.00000000      1.00000000      1.00000000      1.00000000      1.00000000      1.00000000      1.00000000      1.00000000      1.00000000      1.00000000      1.00000000      1.00000000      1.00000000      1.00000000      1.00000000      1.00000000      1.00000000      1.00000000      1.00000000      1.00000000
      1.00000000      1.00000000      1.00000000      1.00000000      1.00000000      1.00000000      1.00000000      1.00000000      1.00000000      1.00000000</v>
    <i name="NUPDOWN">     -1.00000000</i>
    <i type="logical" name="LSORBIT"> F  </i>
    <v name="SAXIS">      0.00000000      0.00000000      1.00000000</v>
    <i type="logical" name="LSPIRAL"> F  </i>
    <v name="QSPIRAL">      0.00000000      0.00000000      0.00000000</v>
    <i type="logical" name="LZEROZ"> F  </i>
   </separator>
   <separator name="electronic exchange-correlation" >
    <i type="logical" name="LASPH"> F  </i>
    <i type="logical" name="LMETAGGA"> F  </i>
   </separator>
   <separator name="electronic convergence" >
    <i type="int" name="NELM">    90</i>
    <i type="int" name="NELMDL">    -5</i>
    <i type="int" name="NELMIN">     6</i>
    <i name="ENINI">    400.00000000</i>
    <separator name="electronic convergence detail" >
     <i type="logical" name="LDIAG"> T  </i>
     <i type="logical" name="LSUBROT"> F  </i>
     <i name="WEIMIN">      0.00000000</i>
     <i name="EBREAK">      0.00000000</i>
     <i name="DEPER">      0.30000000</i>
     <i type="int" name="NRMM">     4</i>
     <i name="TIME">      0.40000000</i>
    </separator>
   </separator>
   <separator name="electronic mixer" >
    <i name="AMIX">      0.40000000</i>
    <i name="BMIX">      1.00000000</i>
    <i name="AMIN">      0.10000000</i>
    <i name="AMIX_MAG">      1.60000000</i>
    <i name="BMIX_MAG">      1.00000000</i>
    <separator name="electronic mixer details" >
     <i type="int" name="IMIX">     4</i>
     <i type="logical" name="MIXFIRST"> F  </i>
     <i type="int" name="MAXMIX">   -45</i>
     <i name="WC">    100.00000000</i>
     <i type="int" name="INIMIX">     1</i>
     <i type="int" name="MIXPRE">     1</i>
     <i type="int" name="MREMOVE">     5</i>
    </separator>
   </separator>
   <separator name="electronic dipolcorrection" >
    <i type="logical" name="LDIPOL"> F  </i>
    <i type="logical" name="LMONO"> F  </i>
    <i type="int" name="IDIPOL">     0</i>
    <i name="EPSILON">      1.00000000</i>
    <v name="DIPOL">   -100.00000000   -100.00000000   -100.00000000</v>
    <i name="EFIELD">      0.00000000</i>
   </separator>
  </separator>
  <separator name="grids" >
   <i type="int" name="NGX">    36</i>
   <i type="int" name="NGY">    36</i>
   <i type="int" name="NGZ">    90</i>
   <i type="int" name="NGXF">    72</i>
   <i type="int" name="NGYF">    72</i>
   <i type="int" name="NGZF">   180</i>
   <i type="logical" name="ADDGRID"> F  </i>
  </separator>
  <separator name="ionic" >
   <i type="int" name="NSW">     0</i>
   <i type="int" name="IBRION">    -1</i>
   <i type="int" name="MDALGO">     0</i>
   <i type="int" name="ISIF">     2</i>
   <i name="PSTRESS">      0.00000000</i>
   <i name="EDIFFG">     -0.01000000</i>
   <i type="int" name="NFREE">     0</i>
   <i name="POTIM">      0.50000000</i>
   <i name="SMASS">     -3.00000000</i>
   <i name="SCALEE">      1.00000000</i>
  </separator>
  <separator name="ionic md" >
   <i name="TEBEG">      0.00010000</i>
   <i name="TEEND">      0.00010000</i>
   <i type="int" name="NBLOCK">     1</i>
   <i type="int" name="KBLOCK">     1</i>
   <i type="int" name="NPACO">   256</i>
   <i name="APACO">     16.00000000</i>
  </separator>
  <separator name="symmetry" >
   <i type="int" name="ISYM">    -1</i>
   <i name="SYMPREC">      0.00001000</i>
  </separator>
  <separator name="dos" >
   <i type="int" name="LORBIT">     0</i>
   <v name="RWIGS">     -1.00000000     -1.00000000</v>
   <i type="int" name="NEDOS">   301</i>
   <i name="EMIN">     10.00000000</i>
   <i name="EMAX">    -10.00000000</i>
   <i name="EFERMI">      0.00000000</i>
  </separator>
  <separator name="writing" >
   <i type="int" name="NWRITE">     2</i>
   <i type="logical" name="LWAVE"> T  </i>
   <i type="logical" name="LDOWNSAMPLE"> F  </i>
   <i type="logical" name="LCHARG"> T  </i>
   <i type="logical" name="LPARD"> F  </i>
   <i type="logical" name="LVTOT"> F  </i>
   <i type="logical" name="LVHAR"> F  </i>
   <i type="logical" name="LELF"> F  </i>
   <i type="logical" name="LOPTICS"> F  </i>
   <v name="STM">      0.00000000      0.00000000      0.00000000      0.00000000      0.00000000      0.00000000      0.00000000</v>
  </separator>
  <separator name="performance" >
   <i type="int" name="NPAR">    16</i>
   <i type="int" name="NSIM">     4</i>
   <i type="int" name="NBLK">    -1</i>
   <i type="logical" name="LPLANE"> T  </i>
   <i type="logical" name="LSCALAPACK"> T  </i>
   <i type="logical" name="LSCAAWARE"> F  </i>
   <i type="logical" name="LSCALU"> F  </i>
   <i type="logical" name="LASYNC"> F  </i>
   <i type="logical" name="LORBITALREAL"> F  </i>
  </separator>
  <separator name="miscellaneous" >
   <i type="int" name="IDIOT">     3</i>
   <i type="int" name="ISPECIAL">     0</i>
   <i type="logical" name="LMUSIC"> F  </i>
   <v name="POMASS">     47.88000000     16.00000000</v>
   <v name="DARWINR">      0.00000000      0.00000000</v>
   <v name="DARWINV">      1.00000000      1.00000000</v>
   <i type="logical" name="LCORR"> T  </i>
  </separator>
  <i type="logical" name="GGA_COMPAT"> T  </i>
  <i type="logical" name="LBERRY"> F  </i>
  <i type="int" name="ICORELEVEL">     0</i>
  <i type="logical" name="LDAU"> F  </i>
  <i type="int" name="I_CONSTRAINED_M">     0</i>
  <separator name="electronic exchange-correlation" >
   <i type="string" name="GGA">--</i>
   <i type="int" name="VOSKOWN">     0</i>
   <i type="logical" name="LHFCALC"> F  </i>
   <i type="string" name="PRECFOCK"></i>
   <i type="logical" name="LSYMGRAD"> F  </i>
   <i type="logical" name="LHFONE"> F  </i>
   <i type="logical" name="LRHFCALC"> F  </i>
   <i type="logical" name="LTHOMAS"> F  </i>
   <i type="logical" name="LMODELHF"> F  </i>
   <i name="ENCUT4O">     -1.00000000</i>
   <i type="int" name="EXXOEP">     0</i>
   <i type="int" name="FOURORBIT">     0</i>
   <i name="AEXX">      0.00000000</i>
   <i name="HFALPHA">      0.00000000</i>
   <i name="MCALPHA">      0.00000000</i>
   <i name="ALDAX">      1.00000000</i>
   <i name="AGGAX">      1.00000000</i>
   <i name="ALDAC">      1.00000000</i>
   <i name="AGGAC">      1.00000000</i>
   <i type="int" name="NKREDX">     1</i>
   <i type="int" name="NKREDY">     1</i>
   <i type="int" name="NKREDZ">     1</i>
   <i type="logical" name="SHIFTRED"> F  </i>
   <i type="logical" name="ODDONLY"> F  </i>
   <i type="logical" name="EVENONLY"> F  </i>
   <i type="int" name="LMAXFOCK">     0</i>
   <i type="int" name="NMAXFOCKAE">     0</i>
   <i type="logical" name="LFOCKAEDFT"> F  </i>
   <i name="HFSCREEN">      0.00000000</i>
   <i name="HFSCREENC">      0.00000000</i>
   <i type="int" name="NBANDSGWLOW">     0</i>
  </separator>
  <separator name="vdW DFT" >
   <i type="logical" name="LUSE_VDW"> F  </i>
   <i name="Zab_VDW">     -0.84910000</i>
   <i name="PARAM1">      0.12340000</i>
   <i name="PARAM2">      1.00000000</i>
   <i name="PARAM3">      0.00000000</i>
  </separator>
  <separator name="model GW" >
   <i type="int" name="MODEL_GW">     0</i>
   <i name="MODEL_EPS0">      6.22326773</i>
   <i name="MODEL_ALPHA">      1.00000000</i>
  </separator>
  <separator name="linear response parameters" >
   <i type="logical" name="LEPSILON"> F  </i>
   <i type="logical" name="LRPA"> F  </i>
   <i type="logical" name="LNABLA"> F  </i>
   <i type="logical" name="LVEL"> F  </i>
   <i type="int" name="KINTER">     0</i>
   <i name="CSHIFT">      0.10000000</i>
   <i name="OMEGAMAX">     -1.00000000</i>
   <i name="DEG_THRESHOLD">      0.00200000</i>
   <i name="RTIME">     -0.10000000</i>
   <i name="WPLASMAI">      0.00000000</i>
   <v name="DFIELD">      0.00000000      0.00000000      0.00000000</v>
   <v name="WPLASMA">      0.00000000      0.00000000      0.00000000      0.00000000      0.00000000      0.00000000      0.00000000      0.00000000      0.00000000</v>
  </separator>
  <separator name="orbital magnetization" >
   <i type="logical" name="NUCIND"> F  </i>
   <v name="MAGPOS">      0.00000000      0.00000000      0.00000000</v>
   <i type="logical" name="LNICSALL"> T  </i>
   <i type="logical" name="ORBITALMAG"> F  </i>
   <i type="logical" name="LMAGBLOCH"> F  </i>
   <i type="logical" name="LCHIMAG"> F  </i>
   <i type="logical" name="LGAUGE"> T  </i>
   <i type="int" name="MAGATOM">     0</i>
   <v name="MAGDIPOL">      0.00000000      0.00000000      0.00000000</v>
   <v name="AVECCONST">      0.00000000      0.00000000      0.00000000</v>
  </separator>
  <separator name="response functions" >
   <i type="logical" name="LADDER"> F  </i>
   <i type="logical" name="LRPAFORCE"> F  </i>
   <i type="logical" name="LFXC"> F  </i>
   <i type="logical" name="LHARTREE"> T  </i>
   <i type="int" name="IBSE">     0</i>
   <v type="int" name="KPOINT">    -1     0     0     0</v>
   <i type="logical" name="LTCTE"> F  </i>
   <i type="logical" name="LTETE"> F  </i>
   <i type="logical" name="LTRIPLET"> F  </i>
   <i type="logical" name="LFXCEPS"> F  </i>
   <i type="logical" name="LFXHEG"> F  </i>
   <i type="int" name="NATURALO">     2</i>
   <i type="logical" name="L2ORDER"> F  </i>
   <i type="logical" name="LMP2LT"> F  </i>
   <i type="logical" name="LUSEW"> F  </i>
   <i name="ENCUTGW">     -2.00000000</i>
   <i name="ENCUTGWSOFT">     -2.00000000</i>
   <i name="ENCUTLF">     -1.00000000</i>
   <i type="int" name="LMAXMP2">    -1</i>
   <i name="SCISSOR">      0.00000000</i>
   <i type="int" name="NOMEGA">     0</i>
   <i type="int" name="NOMEGAR">     0</i>
   <i type="int" name="NBANDSGW">    -1</i>
   <i type="int" name="NBANDSO">    -1</i>
   <i type="int" name="NBANDSV">    -1</i>
   <i type="int" name="NELM">    90</i>
   <i type="int" name="NELMHF">     1</i>
   <i type="int" name="DIM">     3</i>
   <i type="int" name="ANTIRES">     0</i>
   <i name="OMEGAMAX">    -30.00000000</i>
   <i name="OMEGAMIN">    -30.00000000</i>
   <i name="OMEGATL">   -200.00000000</i>
   <i type="int" name="OMEGAGRID">   140</i>
   <i name="CSHIFT">     -0.10000000</i>
   <i type="logical" name="SELFENERGY"> F  </i>
   <i type="logical" name="LSPECTRAL"> F  </i>
   <i type="logical" name="LSPECTRALGW"> F  </i>
   <i type="logical" name="LSINGLES"> F  </i>
   <i type="logical" name="LFERMIGW"> F  </i>
   <i type="logical" name="ODDONLYGW"> F  </i>
   <i type="logical" name="EVENONLYGW"> F  </i>
   <i type="int" name="NKREDLFX">     1</i>
   <i type="int" name="NKREDLFY">     1</i>
   <i type="int" name="NKREDLFZ">     1</i>
   <i type="int" name="MAXMEM">  2800</i>
   <i type="int" name="TELESCOPE">     0</i>
   <i type="int" name="TAUPAR">     1</i>
   <i type="int" name="OMEGAPAR">    -1</i>
   <i name="LAMBDA">      1.00000000</i>
  </separator>
  <separator name="External order field" >
   <i name="OFIELD_KAPPA">      0.00000000</i>
   <v name="OFIELD_K">      0.00000000      0.00000000      0.00000000</v>
   <i name="OFIELD_Q6_NEAR">      0.00000000</i>
   <i name="OFIELD_Q6_FAR">      0.00000000</i>
   <i name="OFIELD_A">      0.00000000</i>
  </separator>
 </parameters>
 <atominfo>
  <atoms>      30 </atoms>
  <types>       2 </types>
  <array name="atoms" >
   <dimension dim="1">ion</dimension>
   <field type="string">element</field>
   <field type="int">atomtype</field>
   <set>
    <rc><c>Ti</c><c>   1</c></rc>
    <rc><c>Ti</c><c>   1</c></rc>
    <rc><c>Ti</c><c>   1</c></rc>
    <rc><c>Ti</c><c>   1</c></rc>
    <rc><c>Ti</c><c>   1</c></rc>
    <rc><c>Ti</c><c>   1</c></rc>
    <rc><c>Ti</c><c>   1</c></rc>
    <rc><c>Ti</c><c>   1</c></rc>
    <rc><c>Ti</c><c>   1</c></rc>
    <rc><c>Ti</c><c>   1</c></rc>
    <rc><c>Ti</c><c>   1</c></rc>
    <rc><c>Ti</c><c>   1</c></rc>
    <rc><c>O </c><c>   2</c></rc>
    <rc><c>O </c><c>   2</c></rc>
    <rc><c>O </c><c>   2</c></rc>
    <rc><c>O </c><c>   2</c></rc>
    <rc><c>O </c><c>   2</c></rc>
    <rc><c>O </c><c>   2</c></rc>
    <rc><c>O </c><c>   2</c></rc>
    <rc><c>O </c><c>   2</c></rc>
    <rc><c>O </c><c>   2</c></rc>
    <rc><c>O </c><c>   2</c></rc>
    <rc><c>O </c><c>   2</c></rc>
    <rc><c>O </c><c>   2</c></rc>
    <rc><c>O </c><c>   2</c></rc>
    <rc><c>O </c><c>   2</c></rc>
    <rc><c>O </c><c>   2</c></rc>
    <rc><c>O </c><c>   2</c></rc>
    <rc><c>O </c><c>   2</c></rc>
    <rc><c>O </c><c>   2</c></rc>
   </set>
  </array>
  <array name="atomtypes" >
   <dimension dim="1">type</dimension>
   <field type="int">atomspertype</field>
   <field type="string">element</field>
   <field>mass</field>
   <field>valence</field>
   <field type="string">pseudopotential</field>
   <set>
    <rc><c>  12</c><c>Ti</c><c>     47.88000000</c><c>      4.00000000</c><c>  PAW_PBE Ti 08Apr2002                  </c></rc>
    <rc><c>  18</c><c>O </c><c>     16.00000000</c><c>      6.00000000</c><c>  PAW_PBE O 08Apr2002                   </c></rc>
   </set>
  </array>
 </atominfo>
 <structure name="initialpos" >
  <crystal>
   <varray name="basis" >
    <v>       2.55341532      -4.42264507       0.00000000 </v>
    <v>       2.55341532       4.42264507       0.00000000 </v>
    <v>       0.00000000       0.00000000      13.77700915 </v>
   </varray>
   <i name="volume">    311.16338672 </i>
   <varray name="rec_basis" >
    <v>       0.19581617      -0.11305452       0.00000000 </v>
    <v>       0.19581617       0.11305452       0.00000000 </v>
    <v>       0.00000000       0.00000000       0.07258469 </v>
   </varray>
  </crystal>
  <varray name="positions" >
   <v>       0.33333333       0.66666667       0.01247640 </v>
   <v>       0.00000000       0.00000000       0.15419027 </v>
   <v>       0.33333333       0.66666667       0.32085694 </v>
   <v>       0.66666667       0.33333333       0.17914306 </v>
   <v>       0.00000000       0.00000000       0.34580973 </v>
   <v>       0.66666667       0.33333333       0.48752360 </v>
   <v>       0.00000000       0.00000000       0.65419027 </v>
   <v>       0.33333333       0.66666667       0.51247640 </v>
   <v>       0.66666667       0.33333333       0.67914306 </v>
   <v>       0.33333333       0.66666667       0.82085694 </v>
   <v>       0.66666667       0.33333333       0.98752360 </v>
   <v>       0.00000000       0.00000000       0.84580973 </v>
   <v>       0.31267990       0.00000000       0.25000000 </v>
   <v>       0.00000000       0.31267990       0.25000000 </v>
   <v>       0.68732010       0.68732010       0.25000000 </v>
   <v>       0.35398677       0.33333333       0.08333333 </v>
   <v>       0.66666667       0.02065343       0.08333333 </v>
   <v>       0.97934657       0.64601323       0.08333333 </v>
   <v>       0.97934657       0.33333333       0.58333333 </v>
   <v>       0.66666667       0.64601323       0.58333333 </v>
   <v>       0.35398677       0.02065343       0.58333333 </v>
   <v>       0.02065343       0.66666667       0.41666667 </v>
   <v>       0.33333333       0.35398677       0.41666667 </v>
   <v>       0.64601323       0.97934657       0.41666667 </v>
   <v>       0.64601323       0.66666667       0.91666667 </v>
   <v>       0.33333333       0.97934657       0.91666667 </v>
   <v>       0.02065343       0.35398677       0.91666667 </v>
   <v>       0.68732010       0.00000000       0.75000000 </v>
   <v>       0.00000000       0.68732010       0.75000000 </v>
   <v>       0.31267990       0.31267990       0.75000000 </v>
  </varray>
 </structure>
 <calculation>
  <scstep>
   <time name="dav">   42.71   42.76</time>
   <time name="total">   42.75   42.80</time>
   <energy>
    <i name="alphaZ">    739.05072767 </i>
    <i name="ewald">  -7574.34864658 </i>
    <i name="hartreedc">  -2028.64093336 </i>
    <i name="XCdc">     56.48454909 </i>
    <i name="pawpsdc">   7744.08000813 </i>
    <i name="pawaedc">  -7290.88659083 </i>
    <i name="eentropy">     -0.01604418 </i>
    <i name="bandstr">    762.30090395 </i>
    <i name="atom">   8918.24473510 </i>
    <i name="e_fr_energy">   1326.26870899 </i>
    <i name="e_wo_entrp">   1326.28475317 </i>
    <i name="e_0_energy">   1326.27673108 </i>
   </energy>
  </scstep>
  <scstep>
   <time name="dav">   41.90   41.95</time>
   <time name="total">   41.91   41.96</time>
   <energy>
    <i name="e_fr_energy">   -125.36135270 </i>
    <i name="e_wo_entrp">   -125.34497387 </i>
    <i name="e_0_energy">   -125.35316328 </i>
   </energy>
  </scstep>
  <scstep>
   <time name="dav">   45.85   45.90</time>
   <time name="total">   45.85   45.91</time>
   <energy>
    <i name="e_fr_energy">   -326.14301722 </i>
    <i name="e_wo_entrp">   -326.12239669 </i>
    <i name="e_0_energy">   -326.13270695 </i>
   </energy>
  </scstep>
  <scstep>
   <time name="dav">   44.66   44.72</time>
   <time name="total">   44.67   44.72</time>
   <energy>
    <i name="e_fr_energy">   -332.00557350 </i>
    <i name="e_wo_entrp">   -331.98422938 </i>
    <i name="e_0_energy">   -331.99490144 </i>
   </energy>
  </scstep>
  <scstep>
   <time name="dav">   44.12   44.17</time>
   <time name="total">   45.07   45.12</time>
   <energy>
    <i name="e_fr_energy">   -332.04716822 </i>
    <i name="e_wo_entrp">   -332.02582380 </i>
    <i name="e_0_energy">   -332.03649601 </i>
   </energy>
  </scstep>
  <scstep>
   <time name="dav">   53.36   53.42</time>
   <time name="total">   54.36   54.42</time>
   <energy>
    <i name="e_fr_energy">   -270.86812808 </i>
    <i name="e_wo_entrp">   -270.85495514 </i>
    <i name="e_0_energy">   -270.86154161 </i>
   </energy>
  </scstep>
  <scstep>
   <time name="dav">   46.63   46.67</time>
   <time name="total">   47.63   47.67</time>
   <energy>
    <i name="e_fr_energy">   -268.92656964 </i>
    <i name="e_wo_entrp">   -268.91062322 </i>
    <i name="e_0_energy">   -268.91859643 </i>
   </energy>
  </scstep>
  <scstep>
   <time name="dav">   46.80   46.84</time>
   <time name="total">   47.76   47.80</time>
   <energy>
    <i name="e_fr_energy">   -268.94446824 </i>
    <i name="e_wo_entrp">   -268.93199285 </i>
    <i name="e_0_energy">   -268.93823055 </i>
   </energy>
  </scstep>
  <scstep>
   <time name="dav">   45.51   45.54</time>
   <time name="total">   46.47   46.51</time>
   <energy>
    <i name="e_fr_energy">   -267.82533745 </i>
    <i name="e_wo_entrp">   -267.81320661 </i>
    <i name="e_0_energy">   -267.81927203 </i>
   </energy>
  </scstep>
  <scstep>
   <time name="dav">   44.03   44.06</time>
   <time name="total">   45.01   45.04</time>
   <energy>
    <i name="e_fr_energy">   -267.81592303 </i>
    <i name="e_wo_entrp">   -267.80379794 </i>
    <i name="e_0_energy">   -267.80986048 </i>
   </energy>
  </scstep>
  <scstep>
   <time name="dav">   47.23   47.27</time>
   <time name="total">   48.22   48.27</time>
   <energy>
    <i name="e_fr_energy">   -267.81154148 </i>
    <i name="e_wo_entrp">   -267.79940475 </i>
    <i name="e_0_energy">   -267.80547312 </i>
   </energy>
  </scstep>
  <scstep>
   <time name="dav">   46.13   46.18</time>
   <time name="total">   47.09   47.14</time>
   <energy>
    <i name="e_fr_energy">   -267.80547327 </i>
    <i name="e_wo_entrp">   -267.79328323 </i>
    <i name="e_0_energy">   -267.79937825 </i>
   </energy>
  </scstep>
  <scstep>
   <time name="dav">   43.07   43.12</time>
   <time name="total">   44.04   44.09</time>
   <energy>
    <i name="e_fr_energy">   -267.80510476 </i>
    <i name="e_wo_entrp">   -267.79291365 </i>
    <i name="e_0_energy">   -267.79900921 </i>
   </energy>
  </scstep>
  <scstep>
   <time name="dav">   44.82   44.86</time>
   <time name="total">   45.80   45.85</time>
   <energy>
    <i name="e_fr_energy">   -267.80480622 </i>
    <i name="e_wo_entrp">   -267.79263353 </i>
    <i name="e_0_energy">   -267.79871987 </i>
   </energy>
  </scstep>
  <scstep>
   <time name="dav">   44.25   44.28</time>
   <time name="total">   45.23   45.27</time>
   <energy>
    <i name="e_fr_energy">   -267.80479632 </i>
    <i name="e_wo_entrp">   -267.79262731 </i>
    <i name="e_0_energy">   -267.79871181 </i>
   </energy>
  </scstep>
  <scstep>
   <time name="dav">   43.39   43.42</time>
   <time name="total">   44.36   44.39</time>
   <energy>
    <i name="e_fr_energy">   -267.80479544 </i>
    <i name="e_wo_entrp">   -267.79263201 </i>
    <i name="e_0_energy">   -267.79871373 </i>
   </energy>
  </scstep>
  <scstep>
   <time name="dav">   44.53   44.57</time>
   <time name="total">   45.50   45.54</time>
   <energy>
    <i name="e_fr_energy">   -267.80480161 </i>
    <i name="e_wo_entrp">   -267.79263923 </i>
    <i name="e_0_energy">   -267.79872042 </i>
   </energy>
  </scstep>
  <scstep>
   <time name="dav">   45.25   45.29</time>
   <time name="total">   46.22   46.26</time>
   <energy>
    <i name="e_fr_energy">   -267.80480049 </i>
    <i name="e_wo_entrp">   -267.79263890 </i>
    <i name="e_0_energy">   -267.79871970 </i>
   </energy>
  </scstep>
  <scstep>
   <time name="dav">   44.24   44.27</time>
   <time name="total">   45.22   45.26</time>
   <energy>
    <i name="e_fr_energy">   -267.80480043 </i>
    <i name="e_wo_entrp">   -267.79263892 </i>
    <i name="e_0_energy">   -267.79871967 </i>
   </energy>
  </scstep>
  <scstep>
   <time name="dav">   43.10   43.14</time>
   <time name="total">   44.06   44.10</time>
   <energy>
    <i name="e_fr_energy">   -267.80480062 </i>
    <i name="e_wo_entrp">   -267.79263916 </i>
    <i name="e_0_energy">   -267.79871989 </i>
   </energy>
  </scstep>
  <scstep>
   <time name="dav">   44.26   44.29</time>
   <time name="total">   45.22   45.26</time>
   <energy>
    <i name="e_fr_energy">   -267.80480010 </i>
    <i name="e_wo_entrp">   -267.79263856 </i>
    <i name="e_0_energy">   -267.79871933 </i>
   </energy>
  </scstep>
  <scstep>
   <time name="dav">   42.15   42.18</time>
   <time name="total">   43.12   43.16</time>
   <energy>
    <i name="e_fr_energy">   -267.80479963 </i>
    <i name="e_wo_entrp">   -267.79263800 </i>
    <i name="e_0_energy">   -267.79871881 </i>
   </energy>
  </scstep>
  <scstep>
   <time name="dav">   39.26   39.29</time>
   <time name="total">   40.25   40.28</time>
   <energy>
    <i name="e_fr_energy">   -267.80479959 </i>
    <i name="e_wo_entrp">   -267.79263789 </i>
    <i name="e_0_energy">   -267.79871874 </i>
   </energy>
  </scstep>
  <scstep>
   <time name="dav">   35.86   35.89</time>
   <time name="total">   35.90   35.93</time>
   <energy>
    <i name="alphaZ">    739.05072767 </i>
    <i name="ewald">  -7574.34864658 </i>
    <i name="hartreedc">  -2317.22473261 </i>
    <i name="XCdc">     84.73524797 </i>
    <i name="pawpsdc">  14617.58660570 </i>
    <i name="pawaedc"> -14170.33447759 </i>
    <i name="eentropy">     -0.01216175 </i>
    <i name="bandstr">   -565.50209749 </i>
    <i name="atom">   8918.24473510 </i>
    <i name="e_fr_energy">   -267.80479959 </i>
    <i name="e_wo_entrp">   -267.79263784 </i>
    <i name="e_0_energy">   -267.79871871 </i>
   </energy>
  </scstep>
  <structure>
   <crystal>
    <varray name="basis" >
     <v>       2.55341532      -4.42264507       0.00000000 </v>
     <v>       2.55341532       4.42264507       0.00000000 </v>
     <v>       0.00000000       0.00000000      13.77700915 </v>
    </varray>
    <i name="volume">    311.16338672 </i>
    <varray name="rec_basis" >
     <v>       0.19581617      -0.11305452       0.00000000 </v>
     <v>       0.19581617       0.11305452       0.00000000 </v>
     <v>       0.00000000       0.00000000       0.07258469 </v>
    </varray>
   </crystal>
   <varray name="positions" >
    <v>       0.33333333       0.66666667       0.01247640 </v>
    <v>       0.00000000       0.00000000       0.15419027 </v>
    <v>       0.33333333       0.66666667       0.32085694 </v>
    <v>       0.66666667       0.33333333       0.17914306 </v>
    <v>       0.00000000       0.00000000       0.34580973 </v>
    <v>       0.66666667       0.33333333       0.48752360 </v>
    <v>       0.00000000       0.00000000       0.65419027 </v>
    <v>       0.33333333       0.66666667       0.51247640 </v>
    <v>       0.66666667       0.33333333       0.67914306 </v>
    <v>       0.33333333       0.66666667       0.82085694 </v>
    <v>       0.66666667       0.33333333       0.98752360 </v>
    <v>       0.00000000       0.00000000       0.84580973 </v>
    <v>       0.31267990       0.00000000       0.25000000 </v>
    <v>       0.00000000       0.31267990       0.25000000 </v>
    <v>       0.68732010       0.68732010       0.25000000 </v>
    <v>       0.35398677       0.33333333       0.08333333 </v>
    <v>       0.66666667       0.02065343       0.08333333 </v>
    <v>       0.97934657       0.64601323       0.08333333 </v>
    <v>       0.97934657       0.33333333       0.58333333 </v>
    <v>       0.66666667       0.64601323       0.58333333 </v>
    <v>       0.35398677       0.02065343       0.58333333 </v>
    <v>       0.02065343       0.66666667       0.41666667 </v>
    <v>       0.33333333       0.35398677       0.41666667 </v>
    <v>       0.64601323       0.97934657       0.41666667 </v>
    <v>       0.64601323       0.66666667       0.91666667 </v>
    <v>       0.33333333       0.97934657       0.91666667 </v>
    <v>       0.02065343       0.35398677       0.91666667 </v>
    <v>       0.68732010       0.00000000       0.75000000 </v>
    <v>       0.00000000       0.68732010       0.75000000 </v>
    <v>       0.31267990       0.31267990       0.75000000 </v>
   </varray>
  </structure>
  <varray name="forces" >
   <v>      -0.00000088      -0.00000012      -0.00469499 </v>
   <v>      -0.00000083       0.00000015       0.00469918 </v>
   <v>       0.00000088       0.00000013       0.00470084 </v>
   <v>       0.00000083      -0.00000014      -0.00470831 </v>
   <v>      -0.00000087      -0.00000013      -0.00469870 </v>
   <v>      -0.00000084       0.00000014       0.00470849 </v>
   <v>       0.00000088       0.00000012       0.00470286 </v>
   <v>       0.00000082      -0.00000015      -0.00470454 </v>
   <v>      -0.00000088      -0.00000013      -0.00470669 </v>
   <v>      -0.00000083       0.00000015       0.00469753 </v>
   <v>       0.00000088       0.00000013       0.00470534 </v>
   <v>       0.00000083      -0.00000014      -0.00470547 </v>
   <v>      -0.00035010       0.00059067       0.00001218 </v>
   <v>      -0.00033630      -0.00059870       0.00001202 </v>
   <v>       0.00068555       0.00000791       0.00001216 </v>
   <v>       0.00034653      -0.00058362      -0.00000897 </v>
   <v>       0.00033198       0.00059200      -0.00000881 </v>
   <v>      -0.00067762      -0.00000825      -0.00000894 </v>
   <v>      -0.00034558       0.00058778       0.00000985 </v>
   <v>      -0.00033603      -0.00059333       0.00000967 </v>
   <v>       0.00068075       0.00000542       0.00000981 </v>
   <v>       0.00035145      -0.00059055      -0.00001086 </v>
   <v>       0.00033548       0.00059977      -0.00001066 </v>
   <v>      -0.00068608      -0.00000910      -0.00001082 </v>
   <v>      -0.00034360       0.00059890       0.00000396 </v>
   <v>      -0.00034669      -0.00059716       0.00000377 </v>
   <v>       0.00068943      -0.00000184       0.00000389 </v>
   <v>       0.00034773      -0.00059539      -0.00000464 </v>
   <v>       0.00034153       0.00059892      -0.00000448 </v>
   <v>      -0.00068843      -0.00000345      -0.00000463 </v>
  </varray>
  <varray name="stress" >
   <v>     -13.24523242       0.00000033       0.00000103 </v>
   <v>       0.00000020     -13.24346054       0.00000776 </v>
   <v>       0.00000099       0.00000764      11.73204226 </v>
  </varray>
  <energy>
   <i name="e_fr_energy">   -267.80479959 </i>
   <i name="e_wo_entrp">   -267.79871871 </i>
   <i name="e_0_energy">     -0.01216175 </i>
  </energy>
  <time name="totalsc"> 1134.56 1135.61</time>
  <eigenvalues>
   <array>
    <dimension dim="1">band</dimension>
    <dimension dim="2">kpoint</dimension>
    <dimension dim="3">spin</dimension>
    <field>eigene</field>
    <field>occ</field>
    <set>
     <set comment="spin 1">
      <set comment="kpoint 1">
       <r>  -15.8519    1.0000 </r>
       <r>  -15.6810    1.0000 </r>
       <r>  -15.3723    1.0000 </r>
       <r>  -14.9933    1.0000 </r>
       <r>  -14.7873    1.0000 </r>
       <r>  -14.7873    1.0000 </r>
       <r>  -14.7472    1.0000 </r>
       <r>  -14.7472    1.0000 </r>
       <r>  -14.6766    1.0000 </r>
       <r>  -14.6766    1.0000 </r>
       <r>  -14.6393    1.0000 </r>
       <r>  -14.5933    1.0000 </r>
       <r>  -14.5933    1.0000 </r>
       <r>  -14.5195    1.0000 </r>
       <r>  -14.5195    1.0000 </r>
       <r>  -14.4766    1.0000 </r>
       <r>  -14.4766    1.0000 </r>
       <r>  -14.4216    1.0000 </r>
       <r>   -2.9303    1.0000 </r>
       <r>   -2.5594    1.0000 </r>
       <r>   -2.3157    1.0000 </r>
       <r>   -2.3157    1.0000 </r>
       <r>   -2.2159    1.0000 </r>
       <r>   -2.2159    1.0000 </r>
       <r>   -2.0554    1.0000 </r>
       <r>   -2.0422    1.0000 </r>
       <r>   -2.0422    1.0000 </r>
       <r>   -1.9066    1.0000 </r>
       <r>   -1.9066    1.0000 </r>
       <r>   -1.8651    1.0000 </r>
       <r>   -1.8651    1.0000 </r>
       <r>   -1.8209    1.0000 </r>
       <r>   -1.8209    1.0000 </r>
       <r>   -1.7920    1.0000 </r>
       <r>   -1.7791    1.0000 </r>
       <r>   -1.6361    1.0000 </r>
       <r>   -1.4695    1.0000 </r>
       <r>   -1.4695    1.0000 </r>
       <r>   -1.4204    1.0000 </r>
       <r>   -1.3639    1.0000 </r>
       <r>   -1.3639    1.0000 </r>
       <r>   -1.3588    1.0000 </r>
       <r>   -1.3588    1.0000 </r>
       <r>   -1.1800    1.0000 </r>
       <r>   -1.0603    1.0000 </r>
       <r>   -1.0603    1.0000 </r>
       <r>   -0.9658    1.0000 </r>
       <r>   -0.9658    1.0000 </r>
       <r>   -0.8826    1.0000 </r>
       <r>   -0.8826    1.0000 </r>
       <r>   -0.8019    1.0000 </r>
       <r>   -0.5826    1.0000 </r>
       <r>   -0.4128    1.0000 </r>
       <r>   -0.0840    1.0000 </r>
       <r>    0.2373    1.0000 </r>
       <r>    0.3026    1.0000 </r>
       <r>    0.3026    1.0000 </r>
       <r>    0.3109    1.0000 </r>
       <r>    0.3704    1.0000 </r>
       <r>    0.3977    1.0000 </r>
       <r>    0.3977    1.0000 </r>
       <r>    0.5214    1.0000 </r>
       <r>    0.5214    1.0000 </r>
       <r>    0.5901    1.0000 </r>
       <r>    0.7713    1.0000 </r>
       <r>    0.7713    1.0000 </r>
       <r>    0.7951    1.0000 </r>
       <r>    1.1183    1.0000 </r>
       <r>    1.1183    1.0000 </r>
       <r>    1.2437    1.0000 </r>
       <r>    1.2437    1.0000 </r>
       <r>    1.2870    1.0000 </r>
       <r>    4.4099    1.0000 </r>
       <r>    4.8484    1.0000 </r>
       <r>    5.0981    0.9980 </r>
       <r>    5.0981    0.9980 </r>
       <r>    5.2995    0.0024 </r>
       <r>    5.2995    0.0024 </r>
       <r>    5.4258    0.0000 </r>
       <r>    5.5326    0.0000 </r>
       <r>    5.5326    0.0000 </r>
       <r>    5.5422    0.0000 </r>
       <r>    5.5422    0.0000 </r>
       <r>    5.5618    0.0000 </r>
       <r>    5.5944    0.0000 </r>
       <r>    5.5944    0.0000 </r>
       <r>    5.6037    0.0000 </r>
       <r>    5.6286    0.0000 </r>
       <r>    5.6286    0.0000 </r>
       <r>    5.6619    0.0000 </r>
       <r>    5.6872    0.0000 </r>
       <r>    5.6872    0.0000 </r>
       <r>    5.7659    0.0000 </r>
       <r>    5.7659    0.0000 </r>
       <r>    5.7989    0.0000 </r>
       <r>    5.7989    0.0000 </r>
       <r>    6.1424    0.0000 </r>
       <r>    6.1424    0.0000 </r>
       <r>    6.3924    0.0000 </r>
       <r>    6.3924    0.0000 </r>
       <r>    6.4035    0.0000 </r>
       <r>    6.4219    0.0000 </r>
       <r>    6.4219    0.0000 </r>
       <r>    6.6096    0.0000 </r>
       <r>    6.6316    0.0000 </r>
       <r>    6.8606    0.0000 </r>
       <r>    7.0563    0.0000 </r>
       <r>    7.3005    0.0000 </r>
       <r>    7.7402    0.0000 </r>
       <r>    7.7402    0.0000 </r>
       <r>    7.7950    0.0000 </r>
       <r>    7.7950    0.0000 </r>
       <r>    7.8314    0.0000 </r>
       <r>    7.8314    0.0000 </r>
       <r>    7.9197    0.0000 </r>
       <r>    7.9197    0.0000 </r>
       <r>    8.1250    0.0000 </r>
       <r>    8.1250    0.0000 </r>
       <r>    8.1710    0.0000 </r>
       <r>    8.1710    0.0000 </r>
       <r>    8.7039    0.0000 </r>
       <r>    8.7039    0.0000 </r>
       <r>    8.7303    0.0000 </r>
       <r>    8.7303    0.0000 </r>
       <r>    8.9163    0.0000 </r>
       <r>    9.0476    0.0000 </r>
       <r>    9.0476    0.0000 </r>
       <r>    9.0676    0.0000 </r>
       <r>    9.0676    0.0000 </r>
       <r>    9.2567    0.0000 </r>
       <r>    9.2567    0.0000 </r>
       <r>    9.2714    0.0000 </r>
       <r>    9.2714    0.0000 </r>
       <r>    9.6283    0.0000 </r>
       <r>   10.6312    0.0000 </r>
       <r>   11.4587    0.0000 </r>
       <r>   11.9152    0.0000 </r>
       <r>   12.0992    0.0000 </r>
       <r>   14.9916    0.0000 </r>
       <r>   15.3488    0.0000 </r>
       <r>   15.4002    0.0000 </r>
       <r>   15.4002    0.0000 </r>
       <r>   15.4023    0.0000 </r>
       <r>   15.4023    0.0000 </r>
       <r>   15.4800    0.0000 </r>
       <r>   15.4800    0.0000 </r>
       <r>   15.6572    0.0000 </r>
       <r>   15.6572    0.0000 </r>
       <r>   15.9125    0.0000 </r>
       <r>   15.9125    0.0000 </r>
       <r>   15.9871    0.0000 </r>
       <r>   16.0072    0.0000 </r>
       <r>   16.2235    0.0000 </r>
       <r>   16.2235    0.0000 </r>
       <r>   16.4502    0.0000 </r>
       <r>   16.4833    0.0000 </r>
       <r>   16.4833    0.0000 </r>
       <r>   16.6317    0.0000 </r>
       <r>   16.9298    0.0000 </r>
       <r>   16.9298    0.0000 </r>
       <r>   17.6530    0.0000 </r>
       <r>   17.6530    0.0000 </r>
       <r>   18.1042    0.0000 </r>
       <r>   18.1042    0.0000 </r>
       <r>   18.3261    0.0000 </r>
       <r>   18.3261    0.0000 </r>
       <r>   18.4393    0.0000 </r>
       <r>   18.4504    0.0000 </r>
       <r>   18.4504    0.0000 </r>
       <r>   18.4520    0.0000 </r>
       <r>   18.5125    0.0000 </r>
       <r>   18.6754    0.0000 </r>
       <r>   18.8668    0.0000 </r>
       <r>   18.9527    0.0000 </r>
       <r>   18.9676    0.0000 </r>
       <r>   18.9726    0.0000 </r>
       <r>   19.1088    0.0000 </r>
       <r>   19.6152    0.0000 </r>
       <r>   19.7078    0.0000 </r>
       <r>   20.0366    0.0000 </r>
       <r>   20.5695    0.0000 </r>
       <r>   20.5695    0.0000 </r>
       <r>   20.6196    0.0000 </r>
       <r>   20.9959    0.0000 </r>
       <r>   21.0286    0.0000 </r>
       <r>   21.0286    0.0000 </r>
       <r>   21.3256    0.0000 </r>
       <r>   21.8459    0.0000 </r>
       <r>   21.8459    0.0000 </r>
       <r>   21.8865    0.0000 </r>
       <r>   22.2573    0.0000 </r>
       <r>   22.8717    0.0000 </r>
       <r>   22.8717    0.0000 </r>
       <r>   23.2492    0.0000 </r>
       <r>   23.9512    0.0000 </r>
       <r>   23.9512    0.0000 </r>
       <r>   24.4866    0.0000 </r>
       <r>   24.6491    0.0000 </r>
       <r>   24.6491    0.0000 </r>
       <r>   24.7764    0.0000 </r>
       <r>   24.7764    0.0000 </r>
       <r>   24.8534    0.0000 </r>
       <r>   24.8534    0.0000 </r>
       <r>   25.0176    0.0000 </r>
       <r>   25.2798    0.0000 </r>
       <r>   25.2798    0.0000 </r>
       <r>   25.5573    0.0000 </r>
       <r>   25.5641    0.0000 </r>
      </set>
      <set comment="kpoint 2">
       <r>  -15.8110    1.0000 </r>
       <r>  -15.6469    1.0000 </r>
       <r>  -15.3495    1.0000 </r>
       <r>  -14.9912    1.0000 </r>
       <r>  -14.7872    1.0000 </r>
       <r>  -14.7863    1.0000 </r>
       <r>  -14.7836    1.0000 </r>
       <r>  -14.7223    1.0000 </r>
       <r>  -14.7129    1.0000 </r>
       <r>  -14.6434    1.0000 </r>
       <r>  -14.6308    1.0000 </r>
       <r>  -14.6277    1.0000 </r>
       <r>  -14.5786    1.0000 </r>
       <r>  -14.5665    1.0000 </r>
       <r>  -14.5027    1.0000 </r>
       <r>  -14.5012    1.0000 </r>
       <r>  -14.4947    1.0000 </r>
       <r>  -14.4341    1.0000 </r>
       <r>   -2.8890    1.0000 </r>
       <r>   -2.5662    1.0000 </r>
       <r>   -2.3030    1.0000 </r>
       <r>   -2.2920    1.0000 </r>
       <r>   -2.2659    1.0000 </r>
       <r>   -2.2195    1.0000 </r>
       <r>   -2.2141    1.0000 </r>
       <r>   -2.1736    1.0000 </r>
       <r>   -2.0660    1.0000 </r>
       <r>   -2.0226    1.0000 </r>
       <r>   -1.9393    1.0000 </r>
       <r>   -1.9111    1.0000 </r>
       <r>   -1.8792    1.0000 </r>
       <r>   -1.8686    1.0000 </r>
       <r>   -1.8220    1.0000 </r>
       <r>   -1.7727    1.0000 </r>
       <r>   -1.6551    1.0000 </r>
       <r>   -1.5878    1.0000 </r>
       <r>   -1.5857    1.0000 </r>
       <r>   -1.3845    1.0000 </r>
       <r>   -1.3310    1.0000 </r>
       <r>   -1.2647    1.0000 </r>
       <r>   -1.2492    1.0000 </r>
       <r>   -1.1735    1.0000 </r>
       <r>   -1.1728    1.0000 </r>
       <r>   -1.1513    1.0000 </r>
       <r>   -1.1331    1.0000 </r>
       <r>   -1.0528    1.0000 </r>
       <r>   -1.0448    1.0000 </r>
       <r>   -1.0349    1.0000 </r>
       <r>   -0.8866    1.0000 </r>
       <r>   -0.8800    1.0000 </r>
       <r>   -0.7105    1.0000 </r>
       <r>   -0.4585    1.0000 </r>
       <r>   -0.2394    1.0000 </r>
       <r>    0.0179    1.0000 </r>
       <r>    0.0869    1.0000 </r>
       <r>    0.1960    1.0000 </r>
       <r>    0.2177    1.0000 </r>
       <r>    0.2204    1.0000 </r>
       <r>    0.2834    1.0000 </r>
       <r>    0.4051    1.0000 </r>
       <r>    0.5338    1.0000 </r>
       <r>    0.5489    1.0000 </r>
       <r>    0.5668    1.0000 </r>
       <r>    0.5773    1.0000 </r>
       <r>    0.6707    1.0000 </r>
       <r>    0.7972    1.0000 </r>
       <r>    0.8438    1.0000 </r>
       <r>    1.0311    1.0000 </r>
       <r>    1.0559    1.0000 </r>
       <r>    1.0907    1.0000 </r>
       <r>    1.1797    1.0000 </r>
       <r>    1.2827    1.0000 </r>
       <r>    4.4236    1.0000 </r>
       <r>    4.8311    1.0000 </r>
       <r>    4.9914    1.0000 </r>
       <r>    5.1369    0.9623 </r>
       <r>    5.1613    0.8621 </r>
       <r>    5.2577    0.0508 </r>
       <r>    5.2797    0.0119 </r>
       <r>    5.3717    0.0000 </r>
       <r>    5.5015    0.0000 </r>
       <r>    5.5073    0.0000 </r>
       <r>    5.5089    0.0000 </r>
       <r>    5.5094    0.0000 </r>
       <r>    5.5963    0.0000 </r>
       <r>    5.6566    0.0000 </r>
       <r>    5.6668    0.0000 </r>
       <r>    5.6978    0.0000 </r>
       <r>    5.7067    0.0000 </r>
       <r>    5.7163    0.0000 </r>
       <r>    5.7301    0.0000 </r>
       <r>    5.7511    0.0000 </r>
       <r>    5.7843    0.0000 </r>
       <r>    5.8022    0.0000 </r>
       <r>    5.9461    0.0000 </r>
       <r>    5.9466    0.0000 </r>
       <r>    6.1364    0.0000 </r>
       <r>    6.1798    0.0000 </r>
       <r>    6.3237    0.0000 </r>
       <r>    6.3700    0.0000 </r>
       <r>    6.3865    0.0000 </r>
       <r>    6.3961    0.0000 </r>
       <r>    6.4723    0.0000 </r>
       <r>    6.6306    0.0000 </r>
       <r>    6.6563    0.0000 </r>
       <r>    6.8540    0.0000 </r>
       <r>    7.0652    0.0000 </r>
       <r>    7.2820    0.0000 </r>
       <r>    7.7048    0.0000 </r>
       <r>    7.7057    0.0000 </r>
       <r>    7.7503    0.0000 </r>
       <r>    7.8618    0.0000 </r>
       <r>    7.8656    0.0000 </r>
       <r>    7.8898    0.0000 </r>
       <r>    7.8926    0.0000 </r>
       <r>    7.9295    0.0000 </r>
       <r>    8.0404    0.0000 </r>
       <r>    8.0634    0.0000 </r>
       <r>    8.2345    0.0000 </r>
       <r>    8.3062    0.0000 </r>
       <r>    8.4888    0.0000 </r>
       <r>    8.6209    0.0000 </r>
       <r>    8.7818    0.0000 </r>
       <r>    8.8031    0.0000 </r>
       <r>    8.8614    0.0000 </r>
       <r>    8.9679    0.0000 </r>
       <r>    9.0170    0.0000 </r>
       <r>    9.0816    0.0000 </r>
       <r>    9.1690    0.0000 </r>
       <r>    9.1911    0.0000 </r>
       <r>    9.2055    0.0000 </r>
       <r>    9.2813    0.0000 </r>
       <r>    9.2868    0.0000 </r>
       <r>    9.8377    0.0000 </r>
       <r>   10.8228    0.0000 </r>
       <r>   11.6378    0.0000 </r>
       <r>   12.1080    0.0000 </r>
       <r>   12.3358    0.0000 </r>
       <r>   14.6428    0.0000 </r>
       <r>   14.7685    0.0000 </r>
       <r>   14.8000    0.0000 </r>
       <r>   14.9427    0.0000 </r>
       <r>   15.1833    0.0000 </r>
       <r>   15.1920    0.0000 </r>
       <r>   15.1951    0.0000 </r>
       <r>   15.2518    0.0000 </r>
       <r>   15.8167    0.0000 </r>
       <r>   15.8831    0.0000 </r>
       <r>   15.9417    0.0000 </r>
       <r>   16.0029    0.0000 </r>
       <r>   16.1003    0.0000 </r>
       <r>   16.1279    0.0000 </r>
       <r>   16.4073    0.0000 </r>
       <r>   16.4372    0.0000 </r>
       <r>   16.4746    0.0000 </r>
       <r>   16.7021    0.0000 </r>
       <r>   16.7731    0.0000 </r>
       <r>   16.8150    0.0000 </r>
       <r>   16.9809    0.0000 </r>
       <r>   17.3682    0.0000 </r>
       <r>   17.4881    0.0000 </r>
       <r>   18.0906    0.0000 </r>
       <r>   18.1403    0.0000 </r>
       <r>   18.1461    0.0000 </r>
       <r>   18.2411    0.0000 </r>
       <r>   18.3066    0.0000 </r>
       <r>   18.4156    0.0000 </r>
       <r>   18.4763    0.0000 </r>
       <r>   18.4835    0.0000 </r>
       <r>   18.5878    0.0000 </r>
       <r>   18.6775    0.0000 </r>
       <r>   18.7047    0.0000 </r>
       <r>   18.9041    0.0000 </r>
       <r>   18.9392    0.0000 </r>
       <r>   18.9624    0.0000 </r>
       <r>   19.0238    0.0000 </r>
       <r>   19.1384    0.0000 </r>
       <r>   19.6621    0.0000 </r>
       <r>   19.7598    0.0000 </r>
       <r>   20.0428    0.0000 </r>
       <r>   20.2856    0.0000 </r>
       <r>   20.6425    0.0000 </r>
       <r>   20.7240    0.0000 </r>
       <r>   20.8676    0.0000 </r>
       <r>   20.9423    0.0000 </r>
       <r>   21.0674    0.0000 </r>
       <r>   21.4285    0.0000 </r>
       <r>   21.6576    0.0000 </r>
       <r>   21.9296    0.0000 </r>
       <r>   21.9323    0.0000 </r>
       <r>   22.2786    0.0000 </r>
       <r>   22.5699    0.0000 </r>
       <r>   22.8218    0.0000 </r>
       <r>   23.2244    0.0000 </r>
       <r>   23.3245    0.0000 </r>
       <r>   23.8583    0.0000 </r>
       <r>   23.9164    0.0000 </r>
       <r>   23.9400    0.0000 </r>
       <r>   24.0106    0.0000 </r>
       <r>   24.2940    0.0000 </r>
       <r>   24.4606    0.0000 </r>
       <r>   24.8000    0.0000 </r>
       <r>   25.2057    0.0000 </r>
       <r>   25.3181    0.0000 </r>
       <r>   25.3299    0.0000 </r>
       <r>   25.3395    0.0000 </r>
       <r>   25.4498    0.0000 </r>
       <r>   25.4637    0.0000 </r>
      </set>
      <set comment="kpoint 3">
       <r>  -15.6927    1.0000 </r>
       <r>  -15.5530    1.0000 </r>
       <r>  -15.2820    1.0000 </r>
       <r>  -14.9893    1.0000 </r>
       <r>  -14.8379    1.0000 </r>
       <r>  -14.7899    1.0000 </r>
       <r>  -14.7659    1.0000 </r>
       <r>  -14.7542    1.0000 </r>
       <r>  -14.7092    1.0000 </r>
       <r>  -14.6638    1.0000 </r>
       <r>  -14.6502    1.0000 </r>
       <r>  -14.6477    1.0000 </r>
       <r>  -14.5979    1.0000 </r>
       <r>  -14.5903    1.0000 </r>
       <r>  -14.5756    1.0000 </r>
       <r>  -14.5266    1.0000 </r>
       <r>  -14.4953    1.0000 </r>
       <r>  -14.4695    1.0000 </r>
       <r>   -2.7807    1.0000 </r>
       <r>   -2.5839    1.0000 </r>
       <r>   -2.5090    1.0000 </r>
       <r>   -2.4322    1.0000 </r>
       <r>   -2.3091    1.0000 </r>
       <r>   -2.2935    1.0000 </r>
       <r>   -2.2526    1.0000 </r>
       <r>   -2.1902    1.0000 </r>
       <r>   -2.1513    1.0000 </r>
       <r>   -2.1340    1.0000 </r>
       <r>   -2.0433    1.0000 </r>
       <r>   -1.8951    1.0000 </r>
       <r>   -1.8722    1.0000 </r>
       <r>   -1.8300    1.0000 </r>
       <r>   -1.7998    1.0000 </r>
       <r>   -1.7311    1.0000 </r>
       <r>   -1.7001    1.0000 </r>
       <r>   -1.4313    1.0000 </r>
       <r>   -1.4265    1.0000 </r>
       <r>   -1.3565    1.0000 </r>
       <r>   -1.2771    1.0000 </r>
       <r>   -1.2406    1.0000 </r>
       <r>   -1.1807    1.0000 </r>
       <r>   -1.1747    1.0000 </r>
       <r>   -1.1745    1.0000 </r>
       <r>   -1.1591    1.0000 </r>
       <r>   -0.9812    1.0000 </r>
       <r>   -0.9558    1.0000 </r>
       <r>   -0.8834    1.0000 </r>
       <r>   -0.8239    1.0000 </r>
       <r>   -0.7397    1.0000 </r>
       <r>   -0.6617    1.0000 </r>
       <r>   -0.6604    1.0000 </r>
       <r>   -0.3488    1.0000 </r>
       <r>   -0.0851    1.0000 </r>
       <r>    0.0014    1.0000 </r>
       <r>    0.0133    1.0000 </r>
       <r>    0.0407    1.0000 </r>
       <r>    0.0423    1.0000 </r>
       <r>    0.1763    1.0000 </r>
       <r>    0.2421    1.0000 </r>
       <r>    0.2998    1.0000 </r>
       <r>    0.4732    1.0000 </r>
       <r>    0.5829    1.0000 </r>
       <r>    0.5948    1.0000 </r>
       <r>    0.6080    1.0000 </r>
       <r>    0.6211    1.0000 </r>
       <r>    0.6474    1.0000 </r>
       <r>    0.8335    1.0000 </r>
       <r>    0.9246    1.0000 </r>
       <r>    0.9614    1.0000 </r>
       <r>    0.9925    1.0000 </r>
       <r>    1.0002    1.0000 </r>
       <r>    1.1883    1.0000 </r>
       <r>    4.4458    1.0000 </r>
       <r>    4.7356    1.0000 </r>
       <r>    4.8113    1.0000 </r>
       <r>    4.8241    1.0000 </r>
       <r>    4.9978    1.0000 </r>
       <r>    5.1160    0.9911 </r>
       <r>    5.2851    0.0079 </r>
       <r>    5.3576    0.0000 </r>
       <r>    5.3686    0.0000 </r>
       <r>    5.4214    0.0000 </r>
       <r>    5.4731    0.0000 </r>
       <r>    5.4862    0.0000 </r>
       <r>    5.7139    0.0000 </r>
       <r>    5.7184    0.0000 </r>
       <r>    5.7202    0.0000 </r>
       <r>    5.7327    0.0000 </r>
       <r>    5.7444    0.0000 </r>
       <r>    5.7941    0.0000 </r>
       <r>    5.8555    0.0000 </r>
       <r>    5.8716    0.0000 </r>
       <r>    5.8926    0.0000 </r>
       <r>    6.0144    0.0000 </r>
       <r>    6.0913    0.0000 </r>
       <r>    6.1048    0.0000 </r>
       <r>    6.2146    0.0000 </r>
       <r>    6.2369    0.0000 </r>
       <r>    6.2983    0.0000 </r>
       <r>    6.2986    0.0000 </r>
       <r>    6.3020    0.0000 </r>
       <r>    6.3559    0.0000 </r>
       <r>    6.5802    0.0000 </r>
       <r>    6.6678    0.0000 </r>
       <r>    6.6847    0.0000 </r>
       <r>    6.8284    0.0000 </r>
       <r>    7.0818    0.0000 </r>
       <r>    7.2212    0.0000 </r>
       <r>    7.6539    0.0000 </r>
       <r>    7.7245    0.0000 </r>
       <r>    7.7448    0.0000 </r>
       <r>    7.7739    0.0000 </r>
       <r>    7.8764    0.0000 </r>
       <r>    7.9370    0.0000 </r>
       <r>    7.9391    0.0000 </r>
       <r>    7.9505    0.0000 </r>
       <r>    8.0334    0.0000 </r>
       <r>    8.2440    0.0000 </r>
       <r>    8.2459    0.0000 </r>
       <r>    8.2607    0.0000 </r>
       <r>    8.4588    0.0000 </r>
       <r>    8.4610    0.0000 </r>
       <r>    8.5206    0.0000 </r>
       <r>    8.7927    0.0000 </r>
       <r>    8.8059    0.0000 </r>
       <r>    8.8219    0.0000 </r>
       <r>    8.9466    0.0000 </r>
       <r>    8.9493    0.0000 </r>
       <r>    9.0941    0.0000 </r>
       <r>    9.1533    0.0000 </r>
       <r>    9.1873    0.0000 </r>
       <r>    9.3046    0.0000 </r>
       <r>    9.7389    0.0000 </r>
       <r>   10.3549    0.0000 </r>
       <r>   11.2973    0.0000 </r>
       <r>   12.0768    0.0000 </r>
       <r>   12.5773    0.0000 </r>
       <r>   12.9598    0.0000 </r>
       <r>   13.9453    0.0000 </r>
       <r>   14.0074    0.0000 </r>
       <r>   14.1147    0.0000 </r>
       <r>   14.2203    0.0000 </r>
       <r>   14.5332    0.0000 </r>
       <r>   14.6045    0.0000 </r>
       <r>   14.9699    0.0000 </r>
       <r>   14.9920    0.0000 </r>
       <r>   15.7926    0.0000 </r>
       <r>   15.8916    0.0000 </r>
       <r>   15.9078    0.0000 </r>
       <r>   15.9233    0.0000 </r>
       <r>   16.2634    0.0000 </r>
       <r>   16.4464    0.0000 </r>
       <r>   16.4792    0.0000 </r>
       <r>   16.4914    0.0000 </r>
       <r>   16.8882    0.0000 </r>
       <r>   16.9320    0.0000 </r>
       <r>   17.1878    0.0000 </r>
       <r>   17.2126    0.0000 </r>
       <r>   17.2877    0.0000 </r>
       <r>   17.6973    0.0000 </r>
       <r>   18.0304    0.0000 </r>
       <r>   18.1575    0.0000 </r>
       <r>   18.1633    0.0000 </r>
       <r>   18.2950    0.0000 </r>
       <r>   18.3524    0.0000 </r>
       <r>   18.3695    0.0000 </r>
       <r>   18.4621    0.0000 </r>
       <r>   18.4770    0.0000 </r>
       <r>   18.5059    0.0000 </r>
       <r>   18.7069    0.0000 </r>
       <r>   18.7155    0.0000 </r>
       <r>   18.8862    0.0000 </r>
       <r>   18.9253    0.0000 </r>
       <r>   19.0102    0.0000 </r>
       <r>   19.1876    0.0000 </r>
       <r>   19.3065    0.0000 </r>
       <r>   19.3409    0.0000 </r>
       <r>   19.7409    0.0000 </r>
       <r>   19.8648    0.0000 </r>
       <r>   19.9176    0.0000 </r>
       <r>   20.1515    0.0000 </r>
       <r>   20.6683    0.0000 </r>
       <r>   20.7661    0.0000 </r>
       <r>   20.8190    0.0000 </r>
       <r>   20.8243    0.0000 </r>
       <r>   21.1702    0.0000 </r>
       <r>   21.3001    0.0000 </r>
       <r>   21.5877    0.0000 </r>
       <r>   21.9048    0.0000 </r>
       <r>   22.0054    0.0000 </r>
       <r>   22.0870    0.0000 </r>
       <r>   22.3034    0.0000 </r>
       <r>   22.5180    0.0000 </r>
       <r>   22.7790    0.0000 </r>
       <r>   22.9181    0.0000 </r>
       <r>   23.0503    0.0000 </r>
       <r>   23.2339    0.0000 </r>
       <r>   23.4964    0.0000 </r>
       <r>   23.6196    0.0000 </r>
       <r>   23.6403    0.0000 </r>
       <r>   23.6555    0.0000 </r>
       <r>   24.2184    0.0000 </r>
       <r>   24.4212    0.0000 </r>
       <r>   24.9612    0.0000 </r>
       <r>   25.1293    0.0000 </r>
       <r>   25.1423    0.0000 </r>
       <r>   25.2111    0.0000 </r>
       <r>   25.2451    0.0000 </r>
      </set>
      <set comment="kpoint 4">
       <r>  -15.5109    1.0000 </r>
       <r>  -15.4198    1.0000 </r>
       <r>  -15.1751    1.0000 </r>
       <r>  -15.0190    1.0000 </r>
       <r>  -14.8774    1.0000 </r>
       <r>  -14.8265    1.0000 </r>
       <r>  -14.7964    1.0000 </r>
       <r>  -14.7566    1.0000 </r>
       <r>  -14.7286    1.0000 </r>
       <r>  -14.7279    1.0000 </r>
       <r>  -14.7072    1.0000 </r>
       <r>  -14.7028    1.0000 </r>
       <r>  -14.6444    1.0000 </r>
       <r>  -14.5912    1.0000 </r>
       <r>  -14.5674    1.0000 </r>
       <r>  -14.5543    1.0000 </r>
       <r>  -14.5204    1.0000 </r>
       <r>  -14.4884    1.0000 </r>
       <r>   -2.7202    1.0000 </r>
       <r>   -2.6691    1.0000 </r>
       <r>   -2.6399    1.0000 </r>
       <r>   -2.5836    1.0000 </r>
       <r>   -2.4229    1.0000 </r>
       <r>   -2.4205    1.0000 </r>
       <r>   -2.2210    1.0000 </r>
       <r>   -2.1729    1.0000 </r>
       <r>   -2.1462    1.0000 </r>
       <r>   -2.0843    1.0000 </r>
       <r>   -2.0073    1.0000 </r>
       <r>   -1.8729    1.0000 </r>
       <r>   -1.8114    1.0000 </r>
       <r>   -1.8039    1.0000 </r>
       <r>   -1.8039    1.0000 </r>
       <r>   -1.6255    1.0000 </r>
       <r>   -1.6150    1.0000 </r>
       <r>   -1.3911    1.0000 </r>
       <r>   -1.3458    1.0000 </r>
       <r>   -1.3059    1.0000 </r>
       <r>   -1.3049    1.0000 </r>
       <r>   -1.2019    1.0000 </r>
       <r>   -1.1844    1.0000 </r>
       <r>   -1.1431    1.0000 </r>
       <r>   -1.1043    1.0000 </r>
       <r>   -1.0909    1.0000 </r>
       <r>   -0.9417    1.0000 </r>
       <r>   -0.9209    1.0000 </r>
       <r>   -0.7795    1.0000 </r>
       <r>   -0.6543    1.0000 </r>
       <r>   -0.6274    1.0000 </r>
       <r>   -0.5309    1.0000 </r>
       <r>   -0.3410    1.0000 </r>
       <r>   -0.3357    1.0000 </r>
       <r>   -0.2816    1.0000 </r>
       <r>   -0.1504    1.0000 </r>
       <r>   -0.0867    1.0000 </r>
       <r>   -0.0005    1.0000 </r>
       <r>    0.0066    1.0000 </r>
       <r>    0.1174    1.0000 </r>
       <r>    0.1465    1.0000 </r>
       <r>    0.2228    1.0000 </r>
       <r>    0.4061    1.0000 </r>
       <r>    0.4974    1.0000 </r>
       <r>    0.5225    1.0000 </r>
       <r>    0.5618    1.0000 </r>
       <r>    0.5819    1.0000 </r>
       <r>    0.6716    1.0000 </r>
       <r>    0.7204    1.0000 </r>
       <r>    0.8486    1.0000 </r>
       <r>    0.8866    1.0000 </r>
       <r>    1.0031    1.0000 </r>
       <r>    1.0400    1.0000 </r>
       <r>    1.1316    1.0000 </r>
       <r>    4.4773    1.0000 </r>
       <r>    4.5507    1.0000 </r>
       <r>    4.6260    1.0000 </r>
       <r>    4.6275    1.0000 </r>
       <r>    4.7045    1.0000 </r>
       <r>    4.9105    1.0000 </r>
       <r>    5.2329    0.1750 </r>
       <r>    5.3136    0.0006 </r>
       <r>    5.4039    0.0000 </r>
       <r>    5.4430    0.0000 </r>
       <r>    5.5023    0.0000 </r>
       <r>    5.5229    0.0000 </r>
       <r>    5.6442    0.0000 </r>
       <r>    5.7599    0.0000 </r>
       <r>    5.7862    0.0000 </r>
       <r>    5.7877    0.0000 </r>
       <r>    5.8006    0.0000 </r>
       <r>    5.8210    0.0000 </r>
       <r>    6.0405    0.0000 </r>
       <r>    6.0769    0.0000 </r>
       <r>    6.1010    0.0000 </r>
       <r>    6.1160    0.0000 </r>
       <r>    6.1799    0.0000 </r>
       <r>    6.1985    0.0000 </r>
       <r>    6.2126    0.0000 </r>
       <r>    6.2250    0.0000 </r>
       <r>    6.2324    0.0000 </r>
       <r>    6.3242    0.0000 </r>
       <r>    6.3616    0.0000 </r>
       <r>    6.3620    0.0000 </r>
       <r>    6.6727    0.0000 </r>
       <r>    6.6852    0.0000 </r>
       <r>    6.7230    0.0000 </r>
       <r>    6.8047    0.0000 </r>
       <r>    7.0796    0.0000 </r>
       <r>    7.1114    0.0000 </r>
       <r>    7.5838    0.0000 </r>
       <r>    7.7305    0.0000 </r>
       <r>    7.7841    0.0000 </r>
       <r>    7.8637    0.0000 </r>
       <r>    7.8814    0.0000 </r>
       <r>    7.9288    0.0000 </r>
       <r>    7.9763    0.0000 </r>
       <r>    8.0068    0.0000 </r>
       <r>    8.0108    0.0000 </r>
       <r>    8.1439    0.0000 </r>
       <r>    8.2735    0.0000 </r>
       <r>    8.2976    0.0000 </r>
       <r>    8.4652    0.0000 </r>
       <r>    8.4908    0.0000 </r>
       <r>    8.5158    0.0000 </r>
       <r>    8.5261    0.0000 </r>
       <r>    8.6196    0.0000 </r>
       <r>    8.6566    0.0000 </r>
       <r>    8.8383    0.0000 </r>
       <r>    8.9969    0.0000 </r>
       <r>    8.9987    0.0000 </r>
       <r>    9.0017    0.0000 </r>
       <r>    9.0870    0.0000 </r>
       <r>    9.3541    0.0000 </r>
       <r>   10.4944    0.0000 </r>
       <r>   11.0328    0.0000 </r>
       <r>   11.8883    0.0000 </r>
       <r>   12.4828    0.0000 </r>
       <r>   13.0544    0.0000 </r>
       <r>   13.2223    0.0000 </r>
       <r>   13.3437    0.0000 </r>
       <r>   13.4794    0.0000 </r>
       <r>   13.6721    0.0000 </r>
       <r>   13.8238    0.0000 </r>
       <r>   13.9494    0.0000 </r>
       <r>   14.0093    0.0000 </r>
       <r>   14.7063    0.0000 </r>
       <r>   14.8646    0.0000 </r>
       <r>   15.6514    0.0000 </r>
       <r>   15.6598    0.0000 </r>
       <r>   15.9663    0.0000 </r>
       <r>   15.9713    0.0000 </r>
       <r>   16.4425    0.0000 </r>
       <r>   16.5078    0.0000 </r>
       <r>   16.5407    0.0000 </r>
       <r>   16.6227    0.0000 </r>
       <r>   16.8981    0.0000 </r>
       <r>   17.0600    0.0000 </r>
       <r>   17.4140    0.0000 </r>
       <r>   17.5004    0.0000 </r>
       <r>   17.6285    0.0000 </r>
       <r>   18.0594    0.0000 </r>
       <r>   18.0933    0.0000 </r>
       <r>   18.1249    0.0000 </r>
       <r>   18.3014    0.0000 </r>
       <r>   18.3438    0.0000 </r>
       <r>   18.3835    0.0000 </r>
       <r>   18.4138    0.0000 </r>
       <r>   18.4248    0.0000 </r>
       <r>   18.5363    0.0000 </r>
       <r>   18.5395    0.0000 </r>
       <r>   18.7809    0.0000 </r>
       <r>   18.8461    0.0000 </r>
       <r>   18.9653    0.0000 </r>
       <r>   19.0509    0.0000 </r>
       <r>   19.2232    0.0000 </r>
       <r>   19.2536    0.0000 </r>
       <r>   19.7158    0.0000 </r>
       <r>   19.8878    0.0000 </r>
       <r>   19.8955    0.0000 </r>
       <r>   19.9463    0.0000 </r>
       <r>   19.9581    0.0000 </r>
       <r>   20.4640    0.0000 </r>
       <r>   20.6135    0.0000 </r>
       <r>   20.6962    0.0000 </r>
       <r>   20.8818    0.0000 </r>
       <r>   20.9415    0.0000 </r>
       <r>   21.0890    0.0000 </r>
       <r>   21.1960    0.0000 </r>
       <r>   21.3932    0.0000 </r>
       <r>   21.7052    0.0000 </r>
       <r>   21.7397    0.0000 </r>
       <r>   21.9963    0.0000 </r>
       <r>   22.1904    0.0000 </r>
       <r>   22.3295    0.0000 </r>
       <r>   22.4890    0.0000 </r>
       <r>   22.5460    0.0000 </r>
       <r>   22.7551    0.0000 </r>
       <r>   22.8358    0.0000 </r>
       <r>   22.8514    0.0000 </r>
[...]
       <r>   15.8916    0.0000 </r>
       <r>   16.0814    0.0000 </r>
       <r>   16.2255    0.0000 </r>
       <r>   16.3614    0.0000 </r>
       <r>   16.4141    0.0000 </r>
       <r>   16.5031    0.0000 </r>
       <r>   16.8582    0.0000 </r>
       <r>   16.9086    0.0000 </r>
       <r>   17.0339    0.0000 </r>
       <r>   17.1495    0.0000 </r>
       <r>   17.3996    0.0000 </r>
       <r>   17.4534    0.0000 </r>
       <r>   17.8951    0.0000 </r>
       <r>   17.9649    0.0000 </r>
       <r>   18.2678    0.0000 </r>
       <r>   18.2957    0.0000 </r>
       <r>   18.3041    0.0000 </r>
       <r>   18.3987    0.0000 </r>
       <r>   18.4535    0.0000 </r>
       <r>   18.4793    0.0000 </r>
       <r>   18.5042    0.0000 </r>
       <r>   18.6837    0.0000 </r>
       <r>   18.7139    0.0000 </r>
       <r>   18.7437    0.0000 </r>
       <r>   18.8762    0.0000 </r>
       <r>   19.0877    0.0000 </r>
       <r>   19.1209    0.0000 </r>
       <r>   19.1495    0.0000 </r>
       <r>   19.2271    0.0000 </r>
       <r>   19.7664    0.0000 </r>
       <r>   19.8982    0.0000 </r>
       <r>   19.9788    0.0000 </r>
       <r>   20.0686    0.0000 </r>
       <r>   20.6827    0.0000 </r>
       <r>   20.7607    0.0000 </r>
       <r>   20.8011    0.0000 </r>
       <r>   20.8808    0.0000 </r>
       <r>   21.1423    0.0000 </r>
       <r>   21.4063    0.0000 </r>
       <r>   21.5319    0.0000 </r>
       <r>   21.9974    0.0000 </r>
       <r>   22.0205    0.0000 </r>
       <r>   22.0978    0.0000 </r>
       <r>   22.2799    0.0000 </r>
       <r>   22.7463    0.0000 </r>
       <r>   22.7951    0.0000 </r>
       <r>   23.1228    0.0000 </r>
       <r>   23.2025    0.0000 </r>
       <r>   23.3161    0.0000 </r>
       <r>   23.5634    0.0000 </r>
       <r>   23.7799    0.0000 </r>
       <r>   23.8867    0.0000 </r>
       <r>   24.0336    0.0000 </r>
       <r>   24.2495    0.0000 </r>
       <r>   24.4514    0.0000 </r>
       <r>   24.7643    0.0000 </r>
       <r>   25.0645    0.0000 </r>
       <r>   25.1224    0.0000 </r>
       <r>   25.6202    0.0000 </r>
       <r>   25.6755    0.0000 </r>
      </set>
     </set>
    </set>
   </array>
  </eigenvalues>
  <separator name="orbital magnetization" >
   <v name="MAGDIPOLOUT">      0.00000000      0.00000000      0.00000000</v>
  </separator>
  <dos>
   <i name="efermi">      5.19980634 </i>
   <total>
    <array>
     <dimension dim="1">gridpoints</dimension>
     <dimension dim="2">spin</dimension>
     <field>energy</field>
     <field>total</field>
     <field>integrated</field>
     <set>
      <set comment="spin 1">
       <r>   -17.9304     0.0000     0.0000 </r>
       <r>   -17.7780     0.0000     0.0000 </r>
       <r>   -17.6256     0.0000     0.0000 </r>
       <r>   -17.4732     0.0000     0.0000 </r>
       <r>   -17.3207     0.0000     0.0000 </r>
       <r>   -17.1683     0.0000     0.0000 </r>
       <r>   -17.0159     0.0000     0.0000 </r>
       <r>   -16.8635     0.0000     0.0000 </r>
       <r>   -16.7110     0.0000     0.0000 </r>
       <r>   -16.5586     0.0000     0.0000 </r>
       <r>   -16.4062     0.0000     0.0000 </r>
       <r>   -16.2538     0.0000     0.0000 </r>
       <r>   -16.1013     0.0000     0.0000 </r>
       <r>   -15.9489     0.0005     0.0001 </r>
       <r>   -15.7965     0.8311     0.1268 </r>
       <r>   -15.6441     2.9493     0.5763 </r>
       <r>   -15.4916     5.3620     1.3936 </r>
       <r>   -15.3392     7.4935     2.5358 </r>
       <r>   -15.1868    13.7706     4.6348 </r>
       <r>   -15.0343    13.6277     6.7120 </r>
       <r>   -14.8819    21.8429    10.0414 </r>
       <r>   -14.7295    56.2782    18.6197 </r>
       <r>   -14.5771    68.5817    29.0733 </r>
       <r>   -14.4246    44.3333    35.8309 </r>
       <r>   -14.2722     1.1097    36.0000 </r>
       <r>   -14.1198     0.0000    36.0000 </r>
       <r>   -13.9674     0.0000    36.0000 </r>
       <r>   -13.8149     0.0000    36.0000 </r>
       <r>   -13.6625     0.0000    36.0000 </r>
       <r>   -13.5101     0.0000    36.0000 </r>
       <r>   -13.3577     0.0000    36.0000 </r>
       <r>   -13.2052     0.0000    36.0000 </r>
       <r>   -13.0528     0.0000    36.0000 </r>
       <r>   -12.9004     0.0000    36.0000 </r>
       <r>   -12.7480     0.0000    36.0000 </r>
       <r>   -12.5955     0.0000    36.0000 </r>
       <r>   -12.4431     0.0000    36.0000 </r>
       <r>   -12.2907     0.0000    36.0000 </r>
       <r>   -12.1383     0.0000    36.0000 </r>
       <r>   -11.9858     0.0000    36.0000 </r>
       <r>   -11.8334     0.0000    36.0000 </r>
       <r>   -11.6810     0.0000    36.0000 </r>
       <r>   -11.5286     0.0000    36.0000 </r>
       <r>   -11.3761     0.0000    36.0000 </r>
       <r>   -11.2237     0.0000    36.0000 </r>
       <r>   -11.0713     0.0000    36.0000 </r>
       <r>   -10.9189     0.0000    36.0000 </r>
       <r>   -10.7664     0.0000    36.0000 </r>
       <r>   -10.6140     0.0000    36.0000 </r>
       <r>   -10.4616     0.0000    36.0000 </r>
       <r>   -10.3092     0.0000    36.0000 </r>
       <r>   -10.1567     0.0000    36.0000 </r>
       <r>   -10.0043     0.0000    36.0000 </r>
       <r>    -9.8519     0.0000    36.0000 </r>
       <r>    -9.6994     0.0000    36.0000 </r>
       <r>    -9.5470     0.0000    36.0000 </r>
       <r>    -9.3946     0.0000    36.0000 </r>
       <r>    -9.2422     0.0000    36.0000 </r>
       <r>    -9.0897     0.0000    36.0000 </r>
       <r>    -8.9373     0.0000    36.0000 </r>
       <r>    -8.7849     0.0000    36.0000 </r>
       <r>    -8.6325     0.0000    36.0000 </r>
       <r>    -8.4800     0.0000    36.0000 </r>
       <r>    -8.3276     0.0000    36.0000 </r>
       <r>    -8.1752     0.0000    36.0000 </r>
       <r>    -8.0228     0.0000    36.0000 </r>
       <r>    -7.8703     0.0000    36.0000 </r>
       <r>    -7.7179     0.0000    36.0000 </r>
       <r>    -7.5655     0.0000    36.0000 </r>
       <r>    -7.4131     0.0000    36.0000 </r>
       <r>    -7.2606     0.0000    36.0000 </r>
       <r>    -7.1082     0.0000    36.0000 </r>
       <r>    -6.9558     0.0000    36.0000 </r>
       <r>    -6.8034     0.0000    36.0000 </r>
       <r>    -6.6509     0.0000    36.0000 </r>
       <r>    -6.4985     0.0000    36.0000 </r>
       <r>    -6.3461     0.0000    36.0000 </r>
       <r>    -6.1937     0.0000    36.0000 </r>
       <r>    -6.0412     0.0000    36.0000 </r>
       <r>    -5.8888     0.0000    36.0000 </r>
       <r>    -5.7364     0.0000    36.0000 </r>
       <r>    -5.5840     0.0000    36.0000 </r>
       <r>    -5.4315     0.0000    36.0000 </r>
       <r>    -5.2791     0.0000    36.0000 </r>
       <r>    -5.1267     0.0000    36.0000 </r>
       <r>    -4.9742     0.0000    36.0000 </r>
       <r>    -4.8218     0.0000    36.0000 </r>
       <r>    -4.6694     0.0000    36.0000 </r>
       <r>    -4.5170     0.0000    36.0000 </r>
       <r>    -4.3645     0.0000    36.0000 </r>
       <r>    -4.2121     0.0000    36.0000 </r>
       <r>    -4.0597     0.0000    36.0000 </r>
       <r>    -3.9073     0.0000    36.0000 </r>
       <r>    -3.7548     0.0000    36.0000 </r>
       <r>    -3.6024     0.0000    36.0000 </r>
       <r>    -3.4500     0.0000    36.0000 </r>
       <r>    -3.2976     0.0000    36.0000 </r>
       <r>    -3.1451     0.0000    36.0000 </r>
       <r>    -2.9927     0.0079    36.0012 </r>
       <r>    -2.8403     1.7855    36.2734 </r>
       <r>    -2.6879     9.8961    37.7818 </r>
       <r>    -2.5354    25.8618    41.7238 </r>
       <r>    -2.3830    35.2826    47.1018 </r>
       <r>    -2.2306    25.2397    50.9489 </r>
       <r>    -2.0782    22.2306    54.3375 </r>
       <r>    -1.9257    30.3152    58.9583 </r>
       <r>    -1.7733    29.4515    63.4475 </r>
       <r>    -1.6209    29.7543    67.9828 </r>
       <r>    -1.4685    22.7588    71.4518 </r>
       <r>    -1.3160    30.2982    76.0700 </r>
       <r>    -1.1636    32.6681    81.0495 </r>
       <r>    -1.0112    41.9582    87.4450 </r>
       <r>    -0.8588    30.6211    92.1124 </r>
       <r>    -0.7063    26.0375    96.0812 </r>
       <r>    -0.5539    21.5968    99.3732 </r>
       <r>    -0.4015    21.1174   102.5920 </r>
       <r>    -0.2491    20.5806   105.7290 </r>
       <r>    -0.0966    15.1927   108.0448 </r>
       <r>     0.0558    26.0559   112.0164 </r>
       <r>     0.2082    26.1949   116.0091 </r>
       <r>     0.3607    32.7166   120.9960 </r>
       <r>     0.5131    31.6937   125.8269 </r>
       <r>     0.6655    29.3547   130.3013 </r>
       <r>     0.8179    24.1438   133.9815 </r>
       <r>     0.9704    23.1179   137.5052 </r>
       <r>     1.1228    33.4611   142.6056 </r>
       <r>     1.2752     8.2425   143.8619 </r>
       <r>     1.4276     0.9058   144.0000 </r>
       <r>     1.5801     0.0000   144.0000 </r>
       <r>     1.7325     0.0000   144.0000 </r>
       <r>     1.8849     0.0000   144.0000 </r>
       <r>     2.0373     0.0000   144.0000 </r>
       <r>     2.1898     0.0000   144.0000 </r>
       <r>     2.3422     0.0000   144.0000 </r>
       <r>     2.4946     0.0000   144.0000 </r>
       <r>     2.6470     0.0000   144.0000 </r>
       <r>     2.7995     0.0000   144.0000 </r>
       <r>     2.9519     0.0000   144.0000 </r>
       <r>     3.1043     0.0000   144.0000 </r>
       <r>     3.2567     0.0000   144.0000 </r>
       <r>     3.4092     0.0000   144.0000 </r>
       <r>     3.5616     0.0000   144.0000 </r>
       <r>     3.7140     0.0000   144.0000 </r>
       <r>     3.8664     0.0000   144.0000 </r>
       <r>     4.0189     0.0000   144.0000 </r>
       <r>     4.1713     0.0006   144.0001 </r>
       <r>     4.3237     3.0593   144.4664 </r>
       <r>     4.4761    21.1373   147.6883 </r>
       <r>     4.6286    22.7495   151.1559 </r>
       <r>     4.7810    13.1196   153.1557 </r>
       <r>     4.9334     8.9001   154.5123 </r>
       <r>     5.0859     4.5040   155.1988 </r>
       <r>     5.2383     8.8509   156.5479 </r>
       <r>     5.3907    32.2295   161.4605 </r>
       <r>     5.5431    31.9425   166.3294 </r>
       <r>     5.6956    26.3649   170.3481 </r>
       <r>     5.8480    48.8180   177.7892 </r>
       <r>     6.0004    31.7285   182.6254 </r>
       <r>     6.1528    31.6502   187.4497 </r>
       <r>     6.3053    61.0728   196.7588 </r>
       <r>     6.4577    47.9649   204.0699 </r>
       <r>     6.6101     9.0222   205.4451 </r>
       <r>     6.7625    20.9249   208.6346 </r>
       <r>     6.9150    23.7155   212.2495 </r>
       <r>     7.0674    14.9259   214.5246 </r>
       <r>     7.2198     7.1532   215.6149 </r>
       <r>     7.3722     2.5176   215.9987 </r>
       <r>     7.5247     0.4262   216.0636 </r>
       <r>     7.6771    17.3946   218.7150 </r>
       <r>     7.8295    33.8206   223.8701 </r>
       <r>     7.9819    40.7731   230.0850 </r>
       <r>     8.1344    27.8656   234.3324 </r>
       <r>     8.2868    29.9478   238.8973 </r>
       <r>     8.4392    22.2812   242.2935 </r>
       <r>     8.5916    24.8565   246.0823 </r>
       <r>     8.7441    24.6974   249.8468 </r>
       <r>     8.8965    26.4719   253.8818 </r>
       <r>     9.0489    31.4765   258.6796 </r>
       <r>     9.2013    21.5718   261.9677 </r>
       <r>     9.3538    13.3544   264.0033 </r>
       <r>     9.5062     1.4402   264.2228 </r>
       <r>     9.6586     0.8764   264.3564 </r>
       <r>     9.8111     1.0769   264.5205 </r>
       <r>     9.9635     0.7965   264.6419 </r>
       <r>    10.1159     0.2513   264.6802 </r>
       <r>    10.2683     2.6279   265.0808 </r>
       <r>    10.4208     1.0089   265.2346 </r>
       <r>    10.5732     0.9735   265.3830 </r>
       <r>    10.7256     0.2730   265.4246 </r>
       <r>    10.8780     3.7498   265.9961 </r>
       <r>    11.0305     2.2239   266.3351 </r>
       <r>    11.1829     1.4893   266.5621 </r>
       <r>    11.3353     1.9061   266.8527 </r>
       <r>    11.4877     3.4877   267.3843 </r>
       <r>    11.6402     2.7030   267.7963 </r>
       <r>    11.7926     4.0735   268.4172 </r>
       <r>    11.9450     3.6118   268.9677 </r>
       <r>    12.0974     4.5592   269.6627 </r>
       <r>    12.2499     7.5481   270.8132 </r>
       <r>    12.4023     4.4915   271.4978 </r>
       <r>    12.5547     7.4762   272.6374 </r>
       <r>    12.7071     4.4431   273.3147 </r>
       <r>    12.8596     6.5267   274.3095 </r>
       <r>    13.0120     6.4214   275.2883 </r>
       <r>    13.1644     7.9560   276.5010 </r>
       <r>    13.3168     7.7873   277.6880 </r>
       <r>    13.4693    10.5029   279.2889 </r>
       <r>    13.6217     9.4960   280.7363 </r>
       <r>    13.7741     8.6127   282.0491 </r>
       <r>    13.9265     3.6226   282.6013 </r>
       <r>    14.0790     5.0065   283.3644 </r>
       <r>    14.2314    10.7220   284.9987 </r>
       <r>    14.3838     7.4229   286.1302 </r>
       <r>    14.5362     3.0930   286.6016 </r>
       <r>    14.6887     6.0571   287.5249 </r>
       <r>    14.8411     6.5773   288.5274 </r>
       <r>    14.9935     9.4016   289.9605 </r>
       <r>    15.1460     3.7873   290.5377 </r>
       <r>    15.2984     7.1455   291.6269 </r>
       <r>    15.4508     8.0935   292.8606 </r>
       <r>    15.6032     9.9119   294.3714 </r>
       <r>    15.7557     8.1008   295.6062 </r>
       <r>    15.9081     6.6645   296.6220 </r>
       <r>    16.0605     9.2590   298.0333 </r>
       <r>    16.2129    10.8896   299.6932 </r>
       <r>    16.3654    15.7558   302.0948 </r>
       <r>    16.5178    21.3317   305.3463 </r>
       <r>    16.6702    17.7811   308.0566 </r>
       <r>    16.8226    10.4171   309.6444 </r>
       <r>    16.9751    10.2394   311.2052 </r>
       <r>    17.1275     6.1821   312.1475 </r>
       <r>    17.2799     4.7944   312.8783 </r>
       <r>    17.4323     6.9107   313.9316 </r>
       <r>    17.5848    13.8694   316.0457 </r>
       <r>    17.7372    14.0393   318.1856 </r>
       <r>    17.8896    13.8800   320.3013 </r>
       <r>    18.0420    14.8451   322.5641 </r>
       <r>    18.1945    23.4457   326.1378 </r>
       <r>    18.3469    20.7957   329.3076 </r>
       <r>    18.4993    22.1237   332.6798 </r>
       <r>    18.6517    30.6403   337.3502 </r>
       <r>    18.8042    26.7626   341.4295 </r>
       <r>    18.9566    19.6184   344.4198 </r>
       <r>    19.1090    14.7765   346.6722 </r>
       <r>    19.2614    12.0019   348.5016 </r>
       <r>    19.4139     8.5217   349.8005 </r>
       <r>    19.5663     2.9146   350.2447 </r>
       <r>    19.7187    10.0755   351.7805 </r>
       <r>    19.8712     9.0630   353.1619 </r>
       <r>    20.0236    13.5326   355.2247 </r>
       <r>    20.1760    11.8956   357.0379 </r>
       <r>    20.3284     9.9066   358.5479 </r>
       <r>    20.4809     8.5849   359.8564 </r>
       <r>    20.6333     8.1935   361.1053 </r>
       <r>    20.7857    12.2750   362.9764 </r>
       <r>    20.9381    21.4168   366.2408 </r>
       <r>    21.0906    20.1404   369.3108 </r>
       <r>    21.2430    17.5048   371.9789 </r>
       <r>    21.3954    15.2102   374.2974 </r>
       <r>    21.5478    14.2220   376.4652 </r>
       <r>    21.7003    14.0946   378.6135 </r>
       <r>    21.8527     8.1101   379.8497 </r>
       <r>    22.0051    16.3198   382.3373 </r>
       <r>    22.1575    15.8365   384.7512 </r>
       <r>    22.3100    16.8323   387.3169 </r>
       <r>    22.4624    14.8816   389.5852 </r>
       <r>    22.6148    15.9068   392.0098 </r>
       <r>    22.7672    15.3959   394.3565 </r>
       <r>    22.9197    17.1820   396.9755 </r>
       <r>    23.0721     9.5727   398.4347 </r>
       <r>    23.2245     9.5915   399.8967 </r>
       <r>    23.3769    11.0506   401.5811 </r>
       <r>    23.5294     7.4402   402.7151 </r>
       <r>    23.6818     5.3926   403.5371 </r>
       <r>    23.8342     4.8242   404.2725 </r>
       <r>    23.9866     7.6211   405.4341 </r>
       <r>    24.1391     4.5323   406.1250 </r>
       <r>    24.2915     7.8906   407.3277 </r>
       <r>    24.4439     4.4853   408.0114 </r>
       <r>    24.5963     5.7971   408.8950 </r>
       <r>    24.7488     7.4083   410.0242 </r>
       <r>    24.9012    11.0455   411.7078 </r>
       <r>    25.0536     7.6865   412.8794 </r>
       <r>    25.2061     5.9110   413.7804 </r>
       <r>    25.3585     5.6615   414.6434 </r>
       <r>    25.5109     4.3282   415.3031 </r>
       <r>    25.6633     3.2645   415.8007 </r>
       <r>    25.8158     1.3065   415.9999 </r>
       <r>    25.9682     0.0009   416.0000 </r>
       <r>    26.1206     0.0000   416.0000 </r>
       <r>    26.2730     0.0000   416.0000 </r>
       <r>    26.4255     0.0000   416.0000 </r>
       <r>    26.5779     0.0000   416.0000 </r>
       <r>    26.7303     0.0000   416.0000 </r>
       <r>    26.8827     0.0000   416.0000 </r>
       <r>    27.0352     0.0000   416.0000 </r>
       <r>    27.1876     0.0000   416.0000 </r>
       <r>    27.3400     0.0000   416.0000 </r>
       <r>    27.4924     0.0000   416.0000 </r>
       <r>    27.6449     0.0000   416.0000 </r>
       <r>    27.7973     0.0000   416.0000 </r>
      </set>
     </set>
    </array>
   </total>
  </dos>
 </calculation>
 <structure name="finalpos" >
  <crystal>
   <varray name="basis" >
    <v>       2.55341532      -4.42264507       0.00000000 </v>
    <v>       2.55341532       4.42264507       0.00000000 </v>
    <v>       0.00000000       0.00000000      13.77700915 </v>
   </varray>
   <i name="volume">    311.16338672 </i>
   <varray name="rec_basis" >
    <v>       0.19581617      -0.11305452       0.00000000 </v>
    <v>       0.19581617       0.11305452       0.00000000 </v>
    <v>       0.00000000       0.00000000       0.07258469 </v>
   </varray>
  </crystal>
  <varray name="positions" >
   <v>       0.33333333       0.66666667       0.01247640 </v>
   <v>       0.00000000       0.00000000       0.15419027 </v>
   <v>       0.33333333       0.66666667       0.32085694 </v>
   <v>       0.66666667       0.33333333       0.17914306 </v>
   <v>       0.00000000       0.00000000       0.34580973 </v>
   <v>       0.66666667       0.33333333       0.48752360 </v>
   <v>       0.00000000       0.00000000       0.65419027 </v>
   <v>       0.33333333       0.66666667       0.51247640 </v>
   <v>       0.66666667       0.33333333       0.67914306 </v>
   <v>       0.33333333       0.66666667       0.82085694 </v>
   <v>       0.66666667       0.33333333       0.98752360 </v>
   <v>       0.00000000       0.00000000       0.84580973 </v>
   <v>       0.31267990       0.00000000       0.25000000 </v>
   <v>       0.00000000       0.31267990       0.25000000 </v>
   <v>       0.68732010       0.68732010       0.25000000 </v>
   <v>       0.35398677       0.33333333       0.08333333 </v>
   <v>       0.66666667       0.02065343       0.08333333 </v>
   <v>       0.97934657       0.64601323       0.08333333 </v>
   <v>       0.97934657       0.33333333       0.58333333 </v>
   <v>       0.66666667       0.64601323       0.58333333 </v>
   <v>       0.35398677       0.02065343       0.58333333 </v>
   <v>       0.02065343       0.66666667       0.41666667 </v>
   <v>       0.33333333       0.35398677       0.41666667 </v>
   <v>       0.64601323       0.97934657       0.41666667 </v>
   <v>       0.64601323       0.66666667       0.91666667 </v>
   <v>       0.33333333       0.97934657       0.91666667 </v>
   <v>       0.02065343       0.35398677       0.91666667 </v>
   <v>       0.68732010       0.00000000       0.75000000 </v>
   <v>       0.00000000       0.68732010       0.75000000 </v>
   <v>       0.31267990       0.31267990       0.75000000 </v>
  </varray>
 </structure>
</modeling>
