unknown system                          
           1
     2.553415   -4.422645    0.000000
     2.553415    4.422645    0.000000
     0.000000    0.000000   13.777009
   Ti   O 
  12  18
Direct configuration=     1
   0.33333333  0.66666667  0.01247640
   0.00000000  0.00000000  0.15419027
   0.33333333  0.66666667  0.32085694
   0.66666667  0.33333333  0.17914306
   0.00000000  0.00000000  0.34580973
   0.66666667  0.33333333  0.48752360
   0.00000000  0.00000000  0.65419027
   0.33333333  0.66666667  0.51247640
   0.66666667  0.33333333  0.67914306
   0.33333333  0.66666667  0.82085694
   0.66666667  0.33333333  0.98752360
   0.00000000  0.00000000  0.84580973
   0.31267990  0.00000000  0.25000000
   0.00000000  0.31267990  0.25000000
   0.68732010  0.68732010  0.25000000
   0.35398677  0.33333333  0.08333333
   0.66666667  0.02065343  0.08333333
   0.97934657  0.64601323  0.08333333
   0.97934657  0.33333333  0.58333333
   0.66666667  0.64601323  0.58333333
   0.35398677  0.02065343  0.58333333
   0.02065343  0.66666667  0.41666667
   0.33333333  0.35398677  0.41666667
   0.64601323  0.97934657  0.41666667
   0.64601323  0.66666667  0.91666667
   0.33333333  0.97934657  0.91666667
   0.02065343  0.35398677  0.91666667
   0.68732010  0.00000000  0.75000000
   0.00000000  0.68732010  0.75000000
   0.31267990  0.31267990  0.75000000
