 running on   48 total cores
 distrk:  each k-point on   48 cores,    1 groups
 distr:  one band on    1 cores,   48 groups
 using from now: INCAR     
 vasp.5.4.4.18Apr17-6-g9f103f2a35 (build Feb  7 2022 17:20:47) complex           
 POSCAR found type information on POSCAR  V  Fe
 POSCAR found :  2 types and      20 ions
 scaLAPACK will be used

 ----------------------------------------------------------------------------- 
|                                                                             |
|           W    W    AA    RRRRR   N    N  II  N    N   GGGG   !!!           |
|           W    W   A  A   R    R  NN   N  II  NN   N  G    G  !!!           |
|           W    W  A    A  R    R  N N  N  II  N N  N  G       !!!           |
|           W WW W  AAAAAA  RRRRR   N  N N  II  N  N N  G  GGG   !            |
|           WW  WW  A    A  R   R   N   NN  II  N   NN  G    G                |
|           W    W  A    A  R    R  N    N  II  N    N   GGGG   !!!           |
|                                                                             |
|      For optimal performance we recommend to set                            |
|        NCORE= 4 - approx SQRT( number of cores)                             |
|      NCORE specifies how many cores store one orbital (NPAR=cpu/NCORE).     |
|      This setting can  greatly improve the performance of VASP for DFT.     |
|      The default,   NCORE=1            might be grossly inefficient         |
|      on modern multi-core architectures or massively parallel machines.     |
|      Do your own testing !!!!                                               |
|      Unfortunately you need to use the default for GW and RPA calculations. |
|      (for HF NCORE is supported but not extensively tested yet)             |
|                                                                             |
 ----------------------------------------------------------------------------- 


 ----------------------------------------------------------------------------- 
|                                                                             |
|  ADVICE TO THIS USER RUNNING 'VASP/VAMP'   (HEAR YOUR MASTER'S VOICE ...):  |
|                                                                             |
|      You have a (more or less) 'large supercell' and for larger cells       |
|      it might be more efficient to use real space projection opertators     |
|      So try LREAL= Auto  in the INCAR   file.                               |
|      Mind:          For very  accurate calculation you might also keep the  |
|      reciprocal projection scheme          (i.e. LREAL=.FALSE.)             |
|                                                                             |
 ----------------------------------------------------------------------------- 

 LDA part: xc-table for Pade appr. of Perdew
 POSCAR, INCAR and KPOINTS ok, starting setup
 FFT: planning ...
 WAVECAR not read
 entering main loop
       N       E                     dE             d eps       ncg     rms          rms(c)
DAV:   1     0.357202522020E+03    0.35720E+03   -0.24268E+04 15360   0.773E+02
DAV:   2    -0.168773056446E+03   -0.52598E+03   -0.49634E+03 15360   0.214E+02
DAV:   3    -0.207636798756E+03   -0.38864E+02   -0.37242E+02 26880   0.633E+01
DAV:   4    -0.208421924352E+03   -0.78513E+00   -0.78453E+00 19104   0.116E+01
DAV:   5    -0.208432686104E+03   -0.10762E-01   -0.10761E-01 25632   0.101E+00    0.586E+01
DAV:   6    -0.230651861322E+03   -0.22219E+02   -0.45301E+02 23376   0.119E+02    0.775E+01
DAV:   7    -0.190361369561E+03    0.40290E+02   -0.24851E+02 26880   0.107E+02    0.382E+01
DAV:   8    -0.186694864402E+03    0.36665E+01   -0.14425E+02 30720   0.692E+01    0.289E+01
DAV:   9    -0.180207589090E+03    0.64873E+01   -0.36964E+01 28128   0.346E+01    0.137E+01
DAV:  10    -0.179278605365E+03    0.92898E+00   -0.76790E+00 26976   0.133E+01    0.995E+00
DAV:  11    -0.179251619872E+03    0.26985E-01   -0.26235E-01 19200   0.205E+00    0.971E+00
DAV:  12    -0.179295528700E+03   -0.43909E-01   -0.22915E+00 26880   0.800E+00    0.819E+00
DAV:  13    -0.179156076063E+03    0.13945E+00   -0.18406E+00 26880   0.719E+00    0.624E+00
DAV:  14    -0.179061634460E+03    0.94442E-01   -0.73616E-01 28032   0.551E+00    0.335E+00
DAV:  15    -0.178977486080E+03    0.84148E-01   -0.48572E-01 27744   0.439E+00    0.213E+00
DAV:  16    -0.178975524422E+03    0.19617E-02   -0.77403E-02 29424   0.197E+00    0.193E+00
DAV:  17    -0.178953844568E+03    0.21680E-01   -0.48859E-02 27264   0.159E+00    0.987E-01
DAV:  18    -0.178948218227E+03    0.56263E-02   -0.13612E-02 26784   0.659E-01    0.730E-01
DAV:  19    -0.178945318244E+03    0.29000E-02   -0.88463E-03 26592   0.578E-01    0.420E-01
DAV:  20    -0.178944267201E+03    0.10510E-02   -0.49583E-03 26784   0.400E-01    0.341E-01
DAV:  21    -0.178943347843E+03    0.91936E-03   -0.28734E-03 26496   0.309E-01    0.146E-01
DAV:  22    -0.178943336152E+03    0.11691E-04   -0.51981E-04 22272   0.177E-01    0.145E-01
DAV:  23    -0.178943206262E+03    0.12989E-03   -0.35558E-04 25248   0.148E-01    0.507E-02
DAV:  24    -0.178943202935E+03    0.33268E-05   -0.58256E-05 23088   0.390E-02    0.279E-02
DAV:  25    -0.178943201581E+03    0.13538E-05   -0.14173E-05 26688   0.218E-02    0.204E-02
DAV:  26    -0.178943200664E+03    0.91722E-06   -0.43137E-06 25872   0.119E-02    0.153E-02
DAV:  27    -0.178943198322E+03    0.23416E-05   -0.33302E-06 26688   0.107E-02    0.876E-03
DAV:  28    -0.178943196490E+03    0.18330E-05   -0.12917E-06 25440   0.667E-03    0.320E-03
DAV:  29    -0.178943196197E+03    0.29224E-06   -0.32104E-07 26304   0.317E-03    0.191E-03
DAV:  30    -0.178943196137E+03    0.60456E-07   -0.45307E-08 21600   0.128E-03    0.131E-03
DAV:  31    -0.178943196204E+03   -0.67636E-07   -0.19320E-08 16896   0.878E-04    0.123E-03
DAV:  32    -0.178943196256E+03   -0.51647E-07   -0.57587E-09 10464   0.375E-04    0.117E-03
DAV:  33    -0.178943196261E+03   -0.45475E-08   -0.25513E-09 10464   0.297E-04
   1 F= -.17894320E+03 E0= -.17892972E+03  d E =-.269618E-01
 Linear response reoptimize wavefunctions to high precision
DAV:   1    -0.178943196265E+03   -0.45908E-08   -0.98085E-10  9408   0.199E-04
DAV:   2    -0.178943196265E+03   -0.38369E-10   -0.30636E-10  9888   0.690E-05
 Linear response G [H, r] |phi>, progress :
  Direction:   1
       N       E                     dE             d eps       ncg     rms
RMM:   1    -0.329976512716E+03   -0.32998E+03    0.17340E+02 22782   0.172E+02
RMM:   2    -0.382351692431E+03   -0.52375E+02    0.46350E+01 15789   0.603E+01
RMM:   3    -0.399449973756E+03   -0.17098E+02   -0.27619E+01 26143   0.171E+01
RMM:   4    -0.400959597877E+03   -0.15096E+01   -0.45280E+00 28843   0.395E+00
RMM:   5    -0.401066171105E+03   -0.10657E+00   -0.13587E-01 27445   0.725E-01
RMM:   6    -0.401071665437E+03   -0.54943E-02   -0.55784E-03 27535   0.174E-01
RMM:   7    -0.401072213826E+03   -0.54839E-03    0.18235E-05 28027   0.423E-02
RMM:   8    -0.401072282504E+03   -0.68678E-04    0.35990E-04 27724   0.986E-03
RMM:   9    -0.401072301750E+03   -0.19246E-04    0.22387E-04 28072   0.285E-03
RMM:  10    -0.401072310359E+03   -0.86088E-05    0.14047E-04 27682   0.112E-03
RMM:  11    -0.401072309966E+03    0.39284E-06    0.14508E-04 26268   0.744E-04
RMM:  12    -0.401072313663E+03   -0.36973E-05    0.10801E-04 23631   0.643E-04
RMM:  13    -0.401072310980E+03    0.26836E-05    0.13467E-04 21512   0.631E-04
RMM:  14    -0.401072315543E+03   -0.45631E-05    0.89209E-05 21055   0.636E-04
 Linear response G [H, r] |phi>, progress :
  Direction:   2
       N       E                     dE             d eps       ncg     rms
RMM:   1    -0.322983565235E+03   -0.32298E+03    0.13017E+02 23022   0.173E+02
RMM:   2    -0.380640034404E+03   -0.57656E+02    0.45198E+01 15817   0.594E+01
RMM:   3    -0.397222883834E+03   -0.16583E+02   -0.26304E+01 26018   0.169E+01
RMM:   4    -0.398833249315E+03   -0.16104E+01   -0.44981E+00 28872   0.399E+00
RMM:   5    -0.398945415973E+03   -0.11217E+00   -0.14390E-01 27494   0.718E-01
RMM:   6    -0.398950335818E+03   -0.49198E-02   -0.59317E-03 27430   0.170E-01
RMM:   7    -0.398950767881E+03   -0.43206E-03    0.50383E-04 27960   0.416E-02
RMM:   8    -0.398950863886E+03   -0.96005E-04    0.44779E-04 27753   0.102E-02
RMM:   9    -0.398950888644E+03   -0.24758E-04    0.25921E-04 28039   0.308E-03
RMM:  10    -0.398950875271E+03    0.13373E-04    0.39613E-04 27523   0.144E-03
RMM:  11    -0.398950894665E+03   -0.19394E-04    0.20234E-04 26336   0.107E-03
RMM:  12    -0.398950885521E+03    0.91433E-05    0.29379E-04 23251   0.984E-04
RMM:  13    -0.398950897533E+03   -0.12012E-04    0.17358E-04 21132   0.966E-04
RMM:  14    -0.398950888437E+03    0.90968E-05    0.26467E-04 20590   0.966E-04
 Linear response G [H, r] |phi>, progress :
  Direction:   3
       N       E                     dE             d eps       ncg     rms
RMM:   1    -0.320123176780E+03   -0.32012E+03    0.12330E+02 22804   0.172E+02
RMM:   2    -0.376847098381E+03   -0.56724E+02    0.48341E+01 15823   0.585E+01
RMM:   3    -0.393381645276E+03   -0.16535E+02   -0.24659E+01 26079   0.163E+01
RMM:   4    -0.394839613869E+03   -0.14580E+01   -0.38431E+00 28580   0.372E+00
RMM:   5    -0.394946507457E+03   -0.10689E+00   -0.15229E-01 27804   0.665E-01
RMM:   6    -0.394951043776E+03   -0.45363E-02   -0.46779E-03 27315   0.156E-01
RMM:   7    -0.394951470236E+03   -0.42646E-03    0.32670E-04 28225   0.379E-02
RMM:   8    -0.394951587908E+03   -0.11767E-03    0.21211E-04 27707   0.890E-03
RMM:   9    -0.394951586535E+03    0.13728E-05    0.27420E-04 28183   0.266E-03
RMM:  10    -0.394951598533E+03   -0.11998E-04    0.15778E-04 27542   0.115E-03
RMM:  11    -0.394951591335E+03    0.71978E-05    0.22990E-04 26138   0.790E-04
RMM:  12    -0.394951593227E+03   -0.18916E-05    0.21108E-04 22637   0.740E-04
RMM:  13    -0.394951586703E+03    0.65238E-05    0.27631E-04 20752   0.702E-04
RMM:  14    -0.394951587769E+03   -0.10660E-05    0.26560E-04 20040   0.718E-04
 Linear response to external field (no local field effect), progress :
  Direction:   1
       N       E                     dE             d eps       ncg     rms          rms(c)
RMM:   1    -0.911396191529E+03   -0.91140E+03   -0.14975E+02 15384   0.737E+01
RMM:   2    -0.703213319682E+04   -0.61207E+04    0.14429E+04 15444   0.302E+01
RMM:   3    -0.856881930832E+04   -0.15367E+04    0.12237E+01 16488   0.853E+00
RMM:   4    -0.861215308814E+04   -0.43334E+02   -0.38613E+02 23715   0.283E+00
RMM:   5    -0.858648687185E+04    0.25666E+02   -0.12639E+02 25886   0.683E-01
RMM:   6    -0.858715910036E+04   -0.67223E+00   -0.13279E+02 26983   0.163E-01
RMM:   7    -0.857939570170E+04    0.77634E+01   -0.55128E+01 26001   0.413E-02
RMM:   8    -0.857527941600E+04    0.41163E+01   -0.13959E+01 27387   0.109E-02
RMM:   9    -0.857412741467E+04    0.11520E+01   -0.24381E+00 26827   0.266E-03
RMM:  10    -0.857395716298E+04    0.17025E+00   -0.73553E-01 26443   0.744E-04
RMM:  11    -0.857389795567E+04    0.59207E-01   -0.14346E-01 23878   0.228E-04
RMM:  12    -0.857388886873E+04    0.90869E-02   -0.52593E-02 20278   0.994E-05
RMM:  13    -0.857388451436E+04    0.43544E-02   -0.90475E-03 16921   0.695E-05
RMM:  14    -0.857388395977E+04    0.55459E-03   -0.35034E-03 15201   0.630E-05
RMM:  15    -0.857388364608E+04    0.31369E-03   -0.36588E-04 14279   0.619E-05
RMM:  16    -0.857388355169E+04    0.94393E-04    0.57878E-04 14002   0.619E-05
 change of polarisation eV/A/(eV/A) component  1 : 17147.767  2021.137     1.524
 dielectric tensor                  component  1 : 12349.546  1455.472     1.097
 Linear response to external field (no local field effect), progress :
  Direction:   2
       N       E                     dE             d eps       ncg     rms          rms(c)
RMM:   1    -0.118422423600E+03   -0.11842E+03   -0.50239E+01 15372   0.649E+01
RMM:   2    -0.263865204099E+04   -0.25202E+04    0.54569E+03 15422   0.249E+01
RMM:   3    -0.316096852903E+04   -0.52232E+03    0.35462E+02 16549   0.779E+00
RMM:   4    -0.319447273830E+04   -0.33504E+02    0.26296E+01 23609   0.259E+00
RMM:   5    -0.319594134066E+04   -0.14686E+01    0.12824E+01 25777   0.636E-01
RMM:   6    -0.319720632325E+04   -0.12650E+01    0.32175E-01 26955   0.155E-01
RMM:   7    -0.319733018406E+04   -0.12386E+00   -0.90256E-01 26161   0.377E-02
RMM:   8    -0.319725256343E+04    0.77621E-01   -0.12478E-01 27346   0.101E-02
RMM:   9    -0.319724323874E+04    0.93247E-02   -0.31435E-02 26751   0.251E-03
RMM:  10    -0.319724094895E+04    0.22898E-02   -0.85299E-03 26587   0.712E-04
RMM:  11    -0.319724013529E+04    0.81366E-03   -0.39272E-04 23748   0.221E-04
RMM:  12    -0.319724020223E+04   -0.66940E-04   -0.10621E-03 20269   0.969E-05
RMM:  13    -0.319724010460E+04    0.97626E-04   -0.85810E-05 16998   0.704E-05
RMM:  14    -0.319724012560E+04   -0.21001E-04   -0.29585E-04 15549   0.614E-05
RMM:  15    -0.319724010287E+04    0.22731E-04   -0.68539E-05 14414   0.633E-05
RMM:  16    -0.319724011188E+04   -0.90111E-05   -0.15867E-04 14231   0.603E-05
 change of polarisation eV/A/(eV/A) component  2 :  1047.665  6394.480    77.241
 dielectric tensor                  component  2 :   754.450  4605.829    55.623
 Linear response to external field (no local field effect), progress :
  Direction:   3
       N       E                     dE             d eps       ncg     rms          rms(c)
RMM:   1    -0.346135432225E+03   -0.34614E+03   -0.95930E+01 15380   0.675E+01
RMM:   2    -0.458156699833E+04   -0.42354E+04    0.10311E+04 15504   0.267E+01
RMM:   3    -0.558036038199E+04   -0.99879E+03    0.68652E+02 16599   0.796E+00
RMM:   4    -0.563000016058E+04   -0.49640E+02    0.20482E+02 23520   0.261E+00
RMM:   5    -0.564610095538E+04   -0.16101E+02    0.45458E+01 25665   0.655E-01
RMM:   6    -0.564887925762E+04   -0.27783E+01    0.17863E+01 27035   0.159E-01
RMM:   7    -0.565046676376E+04   -0.15875E+01    0.20078E+00 26108   0.397E-02
RMM:   8    -0.565073847975E+04   -0.27172E+00   -0.70623E-01 27404   0.107E-02
RMM:   9    -0.565068824042E+04    0.50239E-01   -0.20358E-01 26832   0.267E-03
RMM:  10    -0.565067467771E+04    0.13563E-01   -0.67943E-02 26483   0.738E-04
RMM:  11    -0.565067034090E+04    0.43368E-02   -0.24574E-02 23641   0.212E-04
RMM:  12    -0.565066802192E+04    0.23190E-02   -0.13841E-03 20432   0.864E-05
RMM:  13    -0.565066808971E+04   -0.67791E-04   -0.20621E-03 17183   0.519E-05
RMM:  14    -0.565066780243E+04    0.28728E-03    0.81089E-04 15435   0.476E-05
RMM:  15    -0.565066783613E+04   -0.33695E-04    0.47350E-04 14499   0.441E-05
RMM:  16    -0.565066782544E+04    0.10682E-04    0.58043E-04 14331   0.463E-05
 change of polarisation eV/A/(eV/A) component  3 :  -141.180     1.952 11301.336
 dielectric tensor                  component  3 :  -101.667     1.406  8139.381
 Linear response to external field, progress :
  Direction:   1
       N       E                     dE             d eps       ncg     rms          rms(c)
RMM:   1    -0.911396191529E+03   -0.91140E+03   -0.14975E+02 15384   0.737E+01
RMM:   2    -0.703213319695E+04   -0.61207E+04    0.14429E+04 15444   0.302E+01    0.324E+01
RMM:   3    -0.857011349100E+04   -0.15380E+04    0.62699E+02 15693   0.652E+01    0.817E+01
RMM:   4    -0.852181652161E+04    0.48297E+02    0.42686E+02 16029   0.449E+01    0.273E+01
RMM:   5    -0.867130201048E+04   -0.14949E+03   -0.10362E+03 17992   0.262E+01    0.259E+01
RMM:   6    -0.855003500833E+04    0.12127E+03    0.29453E+02 19700   0.182E+01    0.271E+01
RMM:   7    -0.857072500485E+04   -0.20690E+02    0.32538E+01 17888   0.127E+01    0.522E+00
RMM:   8    -0.858971423990E+04   -0.18989E+02   -0.15080E+02 21787   0.506E+00    0.460E+00
RMM:   9    -0.855937451898E+04    0.30340E+02    0.16282E+02 19415   0.386E+00    0.239E+00
RMM:  10    -0.856670064585E+04   -0.73261E+01    0.92135E+01 21536   0.240E+00    0.233E+00
RMM:  11    -0.857758620637E+04   -0.10886E+02   -0.15718E+01 19614   0.165E+00    0.128E+00
RMM:  12    -0.857537097190E+04    0.22152E+01    0.65494E+00 26024   0.669E-01    0.412E-01
RMM:  13    -0.857597069849E+04   -0.59973E+00    0.55798E-01 20963   0.371E-01    0.345E-01
RMM:  14    -0.857683233150E+04   -0.86163E+00   -0.77790E+00 19551   0.287E-01    0.208E-01
RMM:  15    -0.857620824298E+04    0.62409E+00   -0.13695E+00 23181   0.166E-01    0.304E-01
RMM:  16    -0.857576654431E+04    0.44170E+00    0.30744E+00 20478   0.125E-01    0.557E-02
RMM:  17    -0.857580624662E+04   -0.39702E-01    0.26769E+00 23834   0.595E-02    0.523E-02
RMM:  18    -0.857580146660E+04    0.47800E-02    0.27326E+00 19960   0.423E-02    0.211E-02
RMM:  19    -0.857596446086E+04   -0.16299E+00    0.10975E+00 25265   0.202E-02    0.179E-02
RMM:  20    -0.857613441131E+04   -0.16995E+00   -0.58258E-01 20010   0.129E-02    0.876E-03
RMM:  21    -0.857609698697E+04    0.37424E-01   -0.19577E-01 23746   0.724E-03    0.628E-03
RMM:  22    -0.857607164762E+04    0.25339E-01    0.56932E-02 20593   0.535E-03    0.236E-03
RMM:  23    -0.857607637726E+04   -0.47296E-02    0.83141E-03 26616   0.243E-03    0.174E-03
RMM:  24    -0.857607876815E+04   -0.23909E-02   -0.15496E-02 20658   0.193E-03    0.641E-04
RMM:  25    -0.857607842220E+04    0.34595E-03   -0.12094E-02 25123   0.982E-04    0.389E-04
RMM:  26    -0.857607787895E+04    0.54325E-03   -0.66087E-03 22770   0.713E-04    0.268E-04
RMM:  27    -0.857607684628E+04    0.10327E-02    0.36973E-03 23928   0.539E-04    0.902E-05
RMM:  28    -0.857607732574E+04   -0.47947E-03   -0.11199E-03 27446   0.455E-04    0.777E-05
RMM:  29    -0.857607697381E+04    0.35194E-03    0.23708E-03 21514   0.397E-04    0.329E-05
RMM:  30    -0.857607704151E+04   -0.67705E-04    0.16941E-03 22065   0.402E-04    0.275E-05
RMM:  31    -0.857607706456E+04   -0.23046E-04    0.14649E-03 19597   0.365E-04    0.676E-06
 change of polarisation eV/A/(eV/A) component  1 : 17129.269  2013.829     1.131
 dielectric tensor                  component  1 : 12336.225  1450.210     0.814
 Linear response to external field, progress :
  Direction:   2
       N       E                     dE             d eps       ncg     rms          rms(c)
RMM:   1    -0.118422423600E+03   -0.11842E+03   -0.50239E+01 15372   0.649E+01
RMM:   2    -0.263865204099E+04   -0.25202E+04    0.54569E+03 15422   0.249E+01    0.217E+01
RMM:   3    -0.321805727924E+04   -0.57941E+03    0.22829E+02 15806   0.439E+01    0.620E+01
RMM:   4    -0.316527683451E+04    0.52780E+02    0.22115E+02 16151   0.299E+01    0.112E+01
RMM:   5    -0.318445339040E+04   -0.19177E+02    0.69599E+01 18310   0.186E+01    0.173E+01
RMM:   6    -0.318776382804E+04   -0.33104E+01    0.32543E+01 19031   0.119E+01    0.621E+00
RMM:   7    -0.319047087592E+04   -0.27070E+01    0.95520E+00 22420   0.493E+00    0.468E+00
RMM:   8    -0.319055202132E+04   -0.81145E-01    0.13083E+01 20871   0.351E+00    0.447E+00
RMM:   9    -0.319141164797E+04   -0.85963E+00    0.52045E+00 19266   0.270E+00    0.100E+00
RMM:  10    -0.319160236344E+04   -0.19072E+00    0.61867E+00 22057   0.169E+00    0.209E+00
RMM:  11    -0.319198372114E+04   -0.38136E+00    0.31496E+00 19196   0.127E+00    0.102E+00
RMM:  12    -0.319230853608E+04   -0.32481E+00    0.10248E-02 24997   0.549E-01    0.359E-01
RMM:  13    -0.319243430165E+04   -0.12577E+00   -0.78852E-01 20854   0.380E-01    0.220E-01
RMM:  14    -0.319231382442E+04    0.12048E+00    0.50051E-01 20998   0.207E-01    0.185E-01
RMM:  15    -0.319236732330E+04   -0.53499E-01    0.53296E-02 20387   0.151E-01    0.150E-01
RMM:  16    -0.319237927022E+04   -0.11947E-01   -0.54139E-02 24315   0.749E-02    0.540E-02
RMM:  17    -0.319237450304E+04    0.47672E-02    0.64314E-03 22097   0.444E-02    0.492E-02
RMM:  18    -0.319237830457E+04   -0.38015E-02   -0.16602E-02 19685   0.411E-02    0.248E-02
RMM:  19    -0.319237919593E+04   -0.89136E-03   -0.22272E-02 23858   0.195E-02    0.178E-02
RMM:  20    -0.319237826814E+04    0.92778E-03   -0.23116E-03 20853   0.130E-02    0.501E-03
RMM:  21    -0.319238061269E+04   -0.23446E-02   -0.26394E-02 25790   0.608E-03    0.575E-03
RMM:  22    -0.319237763889E+04    0.29738E-02    0.37435E-03 19607   0.471E-03    0.154E-03
RMM:  23    -0.319237805018E+04   -0.41129E-03   -0.22029E-04 26826   0.206E-03    0.143E-03
RMM:  24    -0.319237785449E+04    0.19569E-03    0.19032E-03 20738   0.145E-03    0.475E-04
RMM:  25    -0.319237794637E+04   -0.91879E-04    0.11651E-03 24536   0.805E-04    0.329E-04
RMM:  26    -0.319237811295E+04   -0.16659E-03   -0.52570E-04 23016   0.565E-04    0.228E-04
RMM:  27    -0.319237806031E+04    0.52641E-04   -0.41735E-05 23275   0.433E-04    0.102E-04
RMM:  28    -0.319237805712E+04    0.31951E-05   -0.59597E-06 27365   0.354E-04    0.769E-05
RMM:  29    -0.319237806444E+04   -0.73225E-05   -0.70472E-05 21279   0.305E-04    0.351E-05
RMM:  30    -0.319237808591E+04   -0.21469E-04   -0.28671E-04 22445   0.298E-04    0.269E-05
RMM:  31    -0.319237808113E+04    0.47764E-05   -0.24630E-04 19374   0.269E-04    0.727E-06
 change of polarisation eV/A/(eV/A) component  2 :  1044.464  6375.107    77.266
 dielectric tensor                  component  2 :   752.145  4591.877    55.641
 Linear response to external field, progress :
  Direction:   3
       N       E                     dE             d eps       ncg     rms          rms(c)
RMM:   1    -0.346135432225E+03   -0.34614E+03   -0.95930E+01 15380   0.675E+01
RMM:   2    -0.458156699839E+04   -0.42354E+04    0.10311E+04 15504   0.267E+01    0.288E+01
RMM:   3    -0.557628120099E+04   -0.99471E+03    0.10009E+03 15871   0.457E+01    0.536E+01
RMM:   4    -0.563772784984E+04   -0.61447E+02    0.56309E+01 16370   0.338E+01    0.212E+01
RMM:   5    -0.563805834859E+04   -0.33050E+00    0.17525E+02 18300   0.269E+01    0.394E+01
RMM:   6    -0.564403728729E+04   -0.59789E+01    0.92951E+01 19601   0.176E+01    0.176E+01
RMM:   7    -0.565591791748E+04   -0.11881E+02   -0.27491E+01 19567   0.914E+00    0.523E+00
RMM:   8    -0.565006687705E+04    0.58510E+01    0.53505E+01 20385   0.663E+00    0.994E+00
RMM:   9    -0.565941651821E+04   -0.93496E+01   -0.42681E+01 18657   0.520E+00    0.382E+00
RMM:  10    -0.565821585820E+04    0.12007E+01   -0.29895E+01 22752   0.231E+00    0.191E+00
RMM:  11    -0.565610924211E+04    0.21066E+01   -0.68335E+00 21159   0.133E+00    0.978E-01
RMM:  12    -0.565519826856E+04    0.91097E+00    0.30786E+00 20914   0.827E-01    0.836E-01
RMM:  13    -0.565641779502E+04   -0.12195E+01   -0.82835E+00 19595   0.635E-01    0.175E-01
RMM:  14    -0.565506196650E+04    0.13558E+01    0.53020E+00 29284   0.224E-01    0.271E-01
RMM:  15    -0.565540592899E+04   -0.34396E+00    0.17867E+00 21215   0.143E-01    0.136E-01
RMM:  16    -0.565533852538E+04    0.67404E-01    0.24395E+00 20345   0.951E-02    0.468E-02
RMM:  17    -0.565543475183E+04   -0.96226E-01    0.15516E+00 23189   0.492E-02    0.430E-02
RMM:  18    -0.565551866575E+04   -0.83914E-01    0.72558E-01 20330   0.314E-02    0.199E-02
RMM:  19    -0.565561237783E+04   -0.93712E-01   -0.19863E-01 23218   0.189E-02    0.205E-02
RMM:  20    -0.565561156381E+04    0.81401E-03   -0.18411E-01 20418   0.125E-02    0.578E-03
RMM:  21    -0.565558493234E+04    0.26631E-01    0.82450E-02 25194   0.691E-03    0.624E-03
RMM:  22    -0.565559495365E+04   -0.10021E-01   -0.17453E-02 20128   0.497E-03    0.192E-03
RMM:  23    -0.565559761055E+04   -0.26569E-02   -0.42100E-02 24816   0.277E-03    0.195E-03
RMM:  24    -0.565559535945E+04    0.22511E-02   -0.18902E-02 20875   0.195E-03    0.558E-04
RMM:  25    -0.565559491946E+04    0.43999E-03   -0.14900E-02 26398   0.108E-03    0.328E-04
RMM:  26    -0.565559330088E+04    0.16186E-02    0.12500E-03 24568   0.703E-04    0.253E-04
RMM:  27    -0.565559341915E+04   -0.11828E-03    0.21333E-05 22256   0.612E-04    0.959E-05
RMM:  28    -0.565559339011E+04    0.29039E-04    0.29894E-04 26031   0.527E-04    0.814E-05
RMM:  29    -0.565559338861E+04    0.15080E-05    0.28490E-04 21922   0.486E-04    0.251E-05
RMM:  30    -0.565559341469E+04   -0.26081E-04    0.23759E-05 23643   0.466E-04    0.202E-05
RMM:  31    -0.565559338119E+04    0.33502E-04    0.35560E-04 18455   0.442E-04    0.824E-06
 change of polarisation eV/A/(eV/A) component  3 :  -141.048     2.241 11290.680
 dielectric tensor                  component  3 :  -101.572     1.614  8131.708
 Linear response DOF=          60
 Linear response progress:
  Degree of freedom:   1/ 60
       N       E                     dE             d eps       ncg     rms          rms(c)
RMM:   1    -0.583294462158E-01   -0.58329E-01   -0.43470E-02 27090   0.817E-01
RMM:   2    -0.561188430623E-01    0.22106E-02   -0.73394E-04 15364   0.395E-01    0.318E-01
RMM:   3    -0.709271326384E-01   -0.14808E-01   -0.25624E-02 15360   0.923E-01    0.117E+00
RMM:   4    -0.543882818510E-01    0.16539E-01   -0.25930E-03 15360   0.661E-01    0.231E-01
RMM:   5    -0.550163908945E-01   -0.62811E-03   -0.89689E-04 16930   0.158E-01    0.189E-01
RMM:   6    -0.553821747427E-01   -0.36578E-03   -0.11877E-03 16765   0.172E-01    0.241E-01
RMM:   7    -0.549829299977E-01    0.39924E-03   -0.41982E-04 15440   0.120E-01    0.739E-02
RMM:   8    -0.549767402461E-01    0.61898E-05   -0.99196E-05 21526   0.481E-02    0.547E-02
RMM:   9    -0.549933962731E-01   -0.16656E-04   -0.60783E-05 19457   0.403E-02    0.488E-02
RMM:  10    -0.549834238336E-01    0.99724E-05   -0.19536E-05 22974   0.201E-02    0.116E-02
RMM:  11    -0.549842250332E-01   -0.80120E-06   -0.61128E-06 20686   0.125E-02    0.116E-02
RMM:  12    -0.549824862990E-01    0.17387E-05   -0.26167E-06 18780   0.893E-03    0.501E-03
RMM:  13    -0.549826135312E-01   -0.12723E-06   -0.10159E-06 25300   0.350E-03    0.549E-03
RMM:  14    -0.549830635667E-01   -0.45004E-06   -0.45577E-07 19489   0.335E-03    0.284E-03
RMM:  15    -0.549829776279E-01    0.85939E-07   -0.16595E-07 20593   0.182E-03    0.102E-03
RMM:  16    -0.549829635786E-01    0.14049E-07   -0.73426E-08 24986   0.929E-04    0.110E-03
RMM:  17    -0.549828997404E-01    0.63838E-07   -0.43909E-09 19178   0.716E-04    0.315E-04
RMM:  18    -0.549828137816E-01    0.85959E-07    0.93199E-09 23704   0.347E-04    0.317E-04
RMM:  19    -0.549826522234E-01    0.16156E-06    0.19510E-08 20051   0.244E-04    0.135E-04
RMM:  20    -0.549826324716E-01    0.19752E-07    0.24734E-08 22647   0.147E-04    0.136E-04
RMM:  21    -0.549826271761E-01    0.52955E-08    0.26829E-08 19490   0.113E-04    0.236E-05
 force on displaced ion       1 direction 1 : -10.168  -0.397   0.010
 Born effective charge ion    1 direction 1 :  -7.951  -3.211   0.084
 Linear response progress:
  Degree of freedom:   2/ 60
       N       E                     dE             d eps       ncg     rms          rms(c)
RMM:   1    -0.591547677627E-01   -0.59155E-01   -0.46114E-02 27515   0.810E-01
RMM:   2    -0.561648784101E-01    0.29899E-02   -0.61030E-04 15364   0.404E-01    0.312E-01
RMM:   3    -0.759467312260E-01   -0.19782E-01   -0.20938E-02 15360   0.856E-01    0.125E+00
RMM:   4    -0.548499143599E-01    0.21097E-01   -0.28814E-03 15360   0.590E-01    0.245E-01
RMM:   5    -0.550053746368E-01   -0.15546E-03   -0.99443E-04 16011   0.170E-01    0.151E-01
RMM:   6    -0.555814390040E-01   -0.57606E-03   -0.10575E-03 18731   0.160E-01    0.293E-01
RMM:   7    -0.550422207793E-01    0.53922E-03   -0.40111E-04 15787   0.116E-01    0.604E-02
RMM:   8    -0.550542818463E-01   -0.12061E-04   -0.11179E-04 20342   0.525E-02    0.534E-02
RMM:   9    -0.550649102475E-01   -0.10628E-04   -0.47853E-05 20098   0.358E-02    0.460E-02
RMM:  10    -0.550564120931E-01    0.84982E-05   -0.16700E-05 22716   0.200E-02    0.775E-03
RMM:  11    -0.550562136854E-01    0.19841E-06   -0.44876E-06 22789   0.903E-03    0.952E-03
RMM:  12    -0.550544366731E-01    0.17770E-05   -0.17336E-06 19116   0.658E-03    0.356E-03
RMM:  13    -0.550548633832E-01   -0.42671E-06   -0.92372E-07 23660   0.368E-03    0.588E-03
RMM:  14    -0.550546782776E-01    0.18511E-06   -0.28950E-07 21212   0.248E-03    0.143E-03
RMM:  15    -0.550546350076E-01    0.43270E-07   -0.10656E-07 25059   0.114E-03    0.105E-03
RMM:  16    -0.550544130398E-01    0.22197E-06   -0.20932E-08 20377   0.752E-04    0.577E-04
RMM:  17    -0.550543273833E-01    0.85656E-07    0.19532E-08 23122   0.399E-04    0.272E-04
RMM:  18    -0.550541402952E-01    0.18709E-06    0.57328E-09 20725   0.276E-04    0.247E-04
RMM:  19    -0.550540963752E-01    0.43920E-07    0.47881E-09 20428   0.188E-04    0.124E-04
RMM:  20    -0.550540574977E-01    0.38878E-07    0.12962E-08 22169   0.123E-04    0.101E-04
RMM:  21    -0.550540476673E-01    0.98305E-08    0.18652E-08 20524   0.796E-05    0.247E-05
 force on displaced ion       1 direction 2 :  -0.397 -10.878   0.007
 Born effective charge ion    1 direction 2 :  -4.130   2.864  -0.103
 Linear response progress:
  Degree of freedom:   3/ 60
       N       E                     dE             d eps       ncg     rms          rms(c)
RMM:   1    -0.529769679822E-01   -0.52977E-01   -0.32310E-02 26648   0.766E-01
RMM:   2    -0.523728606679E-01    0.60411E-03   -0.12842E-03 15450   0.337E-01    0.166E-01
RMM:   3    -0.521750627003E-01    0.19780E-03   -0.57721E-04 27476   0.757E-02    0.964E-02
RMM:   4    -0.522404412065E-01   -0.65379E-04   -0.18117E-04 21242   0.533E-02    0.489E-02
RMM:   5    -0.522359661273E-01    0.44751E-05   -0.53319E-05 17413   0.369E-02    0.236E-02
RMM:   6    -0.522710955189E-01   -0.35129E-04   -0.36352E-05 20706   0.288E-02    0.497E-02
RMM:   7    -0.522600340585E-01    0.11061E-04   -0.18949E-05 18449   0.235E-02    0.134E-02
RMM:   8    -0.522588205641E-01    0.12135E-05   -0.28968E-06 24017   0.801E-03    0.367E-03
RMM:   9    -0.522561966217E-01    0.26239E-05   -0.12209E-06 21614   0.499E-03    0.597E-03
RMM:  10    -0.522553362909E-01    0.86033E-06   -0.71811E-07 20277   0.344E-03    0.289E-03
RMM:  11    -0.522556432524E-01   -0.30696E-06   -0.34136E-07 23038   0.208E-03    0.237E-03
RMM:  12    -0.522570865529E-01   -0.14433E-05   -0.13288E-07 19509   0.153E-03    0.738E-04
RMM:  13    -0.522571111880E-01   -0.24635E-07   -0.50640E-08 26258   0.630E-04    0.524E-04
RMM:  14    -0.522569897425E-01    0.12145E-06   -0.80098E-09 21370   0.427E-04    0.621E-04
RMM:  15    -0.522568729573E-01    0.11679E-06    0.38422E-08 20904   0.307E-04    0.174E-04
RMM:  16    -0.522568044122E-01    0.68545E-07   -0.84570E-10 21555   0.183E-04    0.206E-04
RMM:  17    -0.522566821662E-01    0.12225E-06   -0.16068E-08 19571   0.133E-04    0.962E-05
RMM:  18    -0.522566658840E-01    0.16282E-07    0.64113E-09 23025   0.748E-05    0.316E-05
RMM:  19    -0.522566660071E-01   -0.12317E-09    0.35741E-09 25180   0.411E-05    0.296E-05
 force on displaced ion       1 direction 3 :  -0.008  -0.010  -9.773
 Born effective charge ion    1 direction 3 :   0.096   0.190  15.813
 Linear response progress:
  Degree of freedom:   4/ 60
       N       E                     dE             d eps       ncg     rms          rms(c)
RMM:   1    -0.567384557364E-01   -0.56738E-01   -0.47327E-02 28453   0.802E-01
RMM:   2    -0.529034708128E-01    0.38350E-02   -0.78371E-04 15426   0.391E-01    0.253E-01
RMM:   3    -0.629102236136E-01   -0.10007E-01   -0.13082E-02 15360   0.654E-01    0.113E+00
RMM:   4    -0.525560904381E-01    0.10354E-01   -0.44081E-03 15360   0.480E-01    0.277E-01
RMM:   5    -0.522132540068E-01    0.34284E-03   -0.71581E-04 16181   0.156E-01    0.128E-01
RMM:   6    -0.524733409960E-01   -0.26009E-03   -0.62320E-04 16514   0.119E-01    0.168E-01
RMM:   7    -0.522074765082E-01    0.26586E-03   -0.24570E-04 15540   0.878E-02    0.663E-02
RMM:   8    -0.522064622338E-01    0.10143E-05   -0.81691E-05 22207   0.448E-02    0.513E-02
RMM:   9    -0.522203701036E-01   -0.13908E-04   -0.47616E-05 19751   0.345E-02    0.409E-02
RMM:  10    -0.522116587802E-01    0.87113E-05   -0.14506E-05 19217   0.211E-02    0.873E-03
RMM:  11    -0.522122606064E-01   -0.60183E-06   -0.47738E-06 22994   0.106E-02    0.995E-03
RMM:  12    -0.522110123029E-01    0.12483E-05   -0.19316E-06 18799   0.718E-03    0.477E-03
RMM:  13    -0.522112446629E-01   -0.23236E-06   -0.11371E-06 26321   0.301E-03    0.367E-03
RMM:  14    -0.522121139393E-01   -0.86928E-06   -0.29358E-07 19386   0.278E-03    0.241E-03
RMM:  15    -0.522123453886E-01   -0.23145E-06   -0.12399E-07 19620   0.175E-03    0.990E-04
RMM:  16    -0.522123712658E-01   -0.25877E-07   -0.36995E-08 23310   0.843E-04    0.549E-04
RMM:  17    -0.522123311178E-01    0.40148E-07   -0.20895E-08 23452   0.418E-04    0.253E-04
RMM:  18    -0.522122174688E-01    0.11365E-06   -0.27032E-09 23443   0.227E-04    0.241E-04
RMM:  19    -0.522120904331E-01    0.12704E-06    0.44954E-10 19860   0.186E-04    0.115E-04
RMM:  20    -0.522120566403E-01    0.33793E-07   -0.83924E-10 21154   0.116E-04    0.104E-04
RMM:  21    -0.522120467535E-01    0.98868E-08    0.12986E-09 20027   0.781E-05    0.209E-05
 force on displaced ion       2 direction 1 : -10.028  -0.243  -0.005
 Born effective charge ion    2 direction 1 :   2.904   3.502  -0.196
 Linear response progress:
  Degree of freedom:   5/ 60
       N       E                     dE             d eps       ncg     rms          rms(c)
RMM:   1    -0.590486438748E-01   -0.59049E-01   -0.51191E-02 28566   0.801E-01
RMM:   2    -0.547732289652E-01    0.42754E-02   -0.67399E-04 15366   0.404E-01    0.277E-01
RMM:   3    -0.680158572010E-01   -0.13243E-01   -0.17967E-02 15360   0.773E-01    0.111E+00
RMM:   4    -0.542030599477E-01    0.13813E-01   -0.42694E-03 15360   0.527E-01    0.307E-01
RMM:   5    -0.537726675429E-01    0.43039E-03   -0.90426E-04 15941   0.177E-01    0.143E-01
RMM:   6    -0.542472350832E-01   -0.47457E-03   -0.11043E-03 16402   0.162E-01    0.250E-01
RMM:   7    -0.537738849387E-01    0.47335E-03   -0.38676E-04 15504   0.113E-01    0.631E-02
RMM:   8    -0.537837435439E-01   -0.98586E-05   -0.96344E-05 21576   0.474E-02    0.602E-02
RMM:   9    -0.537835897657E-01    0.15378E-06   -0.50547E-05 20084   0.362E-02    0.434E-02
RMM:  10    -0.537740281356E-01    0.95616E-05   -0.15726E-05 20880   0.206E-02    0.725E-03
RMM:  11    -0.537723874965E-01    0.16406E-05   -0.48354E-06 23438   0.938E-03    0.974E-03
RMM:  12    -0.537713431237E-01    0.10444E-05   -0.17676E-06 19421   0.657E-03    0.538E-03
RMM:  13    -0.537717763897E-01   -0.43327E-06   -0.10246E-06 23411   0.396E-03    0.484E-03
RMM:  14    -0.537729183369E-01   -0.11419E-05   -0.32410E-07 19453   0.281E-03    0.173E-03
RMM:  15    -0.537728854789E-01    0.32858E-07   -0.15092E-07 25533   0.118E-03    0.983E-04
RMM:  16    -0.537726897791E-01    0.19570E-06   -0.34322E-08 20145   0.841E-04    0.806E-04
RMM:  17    -0.537725703495E-01    0.11943E-06   -0.10609E-08 19945   0.587E-04    0.244E-04
RMM:  18    -0.537723946301E-01    0.17572E-06   -0.85937E-10 23569   0.305E-04    0.277E-04
RMM:  19    -0.537723484425E-01    0.46188E-07    0.23936E-09 19610   0.210E-04    0.114E-04
RMM:  20    -0.537723325813E-01    0.15861E-07    0.39925E-10 23656   0.119E-04    0.915E-05
RMM:  21    -0.537723220662E-01    0.10515E-07    0.49004E-09 21246   0.742E-05    0.320E-05
RMM:  22    -0.537723127359E-01    0.93303E-08    0.41254E-09 27392   0.366E-05    0.248E-05
 force on displaced ion       2 direction 2 :  -0.243 -10.204   0.001
 Born effective charge ion    2 direction 2 :   0.964   5.419  -0.183
 Linear response progress:
  Degree of freedom:   6/ 60
       N       E                     dE             d eps       ncg     rms          rms(c)
RMM:   1    -0.538792232105E-01   -0.53879E-01   -0.36306E-02 27101   0.758E-01
RMM:   2    -0.525542356717E-01    0.13250E-02   -0.11009E-03 15436   0.333E-01    0.178E-01
RMM:   3    -0.521643413401E-01    0.38989E-03   -0.48267E-04 27153   0.703E-02    0.105E-01
RMM:   4    -0.521361375295E-01    0.28204E-04   -0.25643E-04 22905   0.561E-02    0.392E-02
RMM:   5    -0.521428062782E-01   -0.66687E-05   -0.41849E-05 18882   0.311E-02    0.301E-02
RMM:   6    -0.521578672770E-01   -0.15061E-04   -0.29073E-05 20861   0.266E-02    0.417E-02
RMM:   7    -0.521464862133E-01    0.11381E-04   -0.11593E-05 17799   0.199E-02    0.875E-03
RMM:   8    -0.521462371511E-01    0.24906E-06   -0.25685E-06 23244   0.673E-03    0.378E-03
RMM:   9    -0.521460730549E-01    0.16410E-06   -0.11235E-06 22561   0.389E-03    0.446E-03
RMM:  10    -0.521461070525E-01   -0.33998E-07   -0.36590E-07 20054   0.269E-03    0.218E-03
RMM:  11    -0.521463167294E-01   -0.20968E-06   -0.19145E-07 23994   0.155E-03    0.229E-03
RMM:  12    -0.521466745200E-01   -0.35779E-06   -0.56021E-08 19408   0.132E-03    0.517E-04
RMM:  13    -0.521465585422E-01    0.11598E-06   -0.14536E-08 25095   0.553E-04    0.581E-04
RMM:  14    -0.521463037366E-01    0.25481E-06   -0.22772E-09 20379   0.418E-04    0.455E-04
RMM:  15    -0.521462272822E-01    0.76454E-07   -0.19856E-09 22840   0.236E-04    0.157E-04
RMM:  16    -0.521460471985E-01    0.18008E-06    0.48571E-09 20087   0.179E-04    0.150E-04
RMM:  17    -0.521459979416E-01    0.49257E-07   -0.98437E-09 20033   0.118E-04    0.433E-05
RMM:  18    -0.521460132855E-01   -0.15344E-07    0.52913E-11 26689   0.534E-05    0.583E-05
RMM:  19    -0.521460275152E-01   -0.14230E-07   -0.37231E-10 20123   0.342E-05    0.150E-05
RMM:  20    -0.521460292889E-01   -0.17737E-08    0.19046E-09 26595   0.171E-05    0.136E-05
 force on displaced ion       2 direction 3 :   0.003  -0.001 -10.424
 Born effective charge ion    2 direction 3 :   0.027   0.034   4.542
 Linear response progress:
  Degree of freedom:   7/ 60
       N       E                     dE             d eps       ncg     rms          rms(c)
RMM:   1    -0.579694174327E-01   -0.57969E-01   -0.47962E-02 28050   0.794E-01
RMM:   2    -0.545134090541E-01    0.34560E-02   -0.46234E-04 15360   0.388E-01    0.275E-01
RMM:   3    -0.645537087719E-01   -0.10040E-01   -0.20121E-02 15360   0.786E-01    0.101E+00
RMM:   4    -0.535469297970E-01    0.11007E-01   -0.38465E-03 15360   0.569E-01    0.276E-01
RMM:   5    -0.535858013611E-01   -0.38872E-04   -0.81547E-04 17371   0.161E-01    0.176E-01
RMM:   6    -0.537687138012E-01   -0.18291E-03   -0.10176E-03 15583   0.156E-01    0.181E-01
RMM:   7    -0.535022531219E-01    0.26646E-03   -0.36983E-04 15402   0.111E-01    0.590E-02
RMM:   8    -0.535108219442E-01   -0.85688E-05   -0.79712E-05 22705   0.397E-02    0.511E-02
RMM:   9    -0.535076132624E-01    0.32087E-05   -0.43596E-05 18797   0.345E-02    0.309E-02
RMM:  10    -0.535053029473E-01    0.23103E-05   -0.13809E-05 23667   0.155E-02    0.108E-02
RMM:  11    -0.535052473937E-01    0.55554E-07   -0.43087E-06 20044   0.103E-02    0.110E-02
RMM:  12    -0.535021921759E-01    0.30552E-05   -0.20414E-06 18598   0.798E-03    0.564E-03
RMM:  13    -0.535024233609E-01   -0.23118E-06   -0.74295E-07 25074   0.321E-03    0.520E-03
RMM:  14    -0.535033066849E-01   -0.88332E-06   -0.48713E-07 18897   0.362E-03    0.268E-03
RMM:  15    -0.535032954830E-01    0.11202E-07   -0.16014E-07 20123   0.186E-03    0.955E-04
RMM:  16    -0.535032460700E-01    0.49413E-07   -0.82173E-08 25466   0.863E-04    0.104E-03
RMM:  17    -0.535031312594E-01    0.11481E-06   -0.97104E-09 19621   0.614E-04    0.293E-04
RMM:  18    -0.535030172810E-01    0.11398E-06   -0.15978E-09 24356   0.292E-04    0.275E-04
RMM:  19    -0.535027652239E-01    0.25206E-06    0.20989E-09 20170   0.208E-04    0.132E-04
RMM:  20    -0.535027441426E-01    0.21081E-07    0.62473E-09 22323   0.133E-04    0.120E-04
RMM:  21    -0.535027461607E-01   -0.20181E-08    0.32174E-09 19815   0.959E-05    0.249E-05
 force on displaced ion       3 direction 1 :  -9.712  -0.649  -0.002
 Born effective charge ion    3 direction 1 :  10.866  -6.629  -0.011
 Linear response progress:
  Degree of freedom:   8/ 60
       N       E                     dE             d eps       ncg     rms          rms(c)
RMM:   1    -0.591080739308E-01   -0.59108E-01   -0.53614E-02 28733   0.803E-01
RMM:   2    -0.542158944342E-01    0.48922E-02   -0.33279E-04 15364   0.407E-01    0.256E-01
RMM:   3    -0.654378327504E-01   -0.11222E-01   -0.13014E-02 15360   0.672E-01    0.111E+00
RMM:   4    -0.539907205338E-01    0.11447E-01   -0.43658E-03 15360   0.465E-01    0.296E-01
RMM:   5    -0.534737369155E-01    0.51698E-03   -0.84366E-04 15731   0.176E-01    0.135E-01
RMM:   6    -0.538912165051E-01   -0.41748E-03   -0.92600E-04 16300   0.147E-01    0.224E-01
RMM:   7    -0.534754169685E-01    0.41580E-03   -0.31884E-04 15449   0.104E-01    0.600E-02
RMM:   8    -0.534851469335E-01   -0.97300E-05   -0.80632E-05 22306   0.434E-02    0.594E-02
RMM:   9    -0.534853035707E-01   -0.15664E-06   -0.43911E-05 19661   0.338E-02    0.322E-02
RMM:  10    -0.534793972522E-01    0.59063E-05   -0.13340E-05 20210   0.191E-02    0.679E-03
RMM:  11    -0.534779481083E-01    0.14491E-05   -0.47927E-06 23636   0.942E-03    0.117E-02
RMM:  12    -0.534767039157E-01    0.12442E-05   -0.17466E-06 20171   0.640E-03    0.515E-03
RMM:  13    -0.534769987050E-01   -0.29479E-06   -0.67624E-07 22378   0.370E-03    0.334E-03
RMM:  14    -0.534784030839E-01   -0.14044E-05   -0.31332E-07 20572   0.237E-03    0.173E-03
RMM:  15    -0.534785063368E-01   -0.10325E-06   -0.11406E-07 23288   0.122E-03    0.101E-03
RMM:  16    -0.534783644305E-01    0.14191E-06   -0.45969E-08 20446   0.873E-04    0.888E-04
RMM:  17    -0.534782378207E-01    0.12661E-06   -0.15256E-08 19360   0.614E-04    0.241E-04
RMM:  18    -0.534780949297E-01    0.14289E-06   -0.59766E-09 23624   0.336E-04    0.312E-04
RMM:  19    -0.534780291165E-01    0.65813E-07   -0.27824E-10 19369   0.228E-04    0.119E-04
RMM:  20    -0.534779962455E-01    0.32871E-07   -0.14056E-11 24735   0.130E-04    0.972E-05
RMM:  21    -0.534779825823E-01    0.13663E-07    0.17192E-09 20602   0.793E-05    0.343E-05
RMM:  22    -0.534779736063E-01    0.89761E-08    0.12705E-09 26898   0.375E-05    0.291E-05
 force on displaced ion       3 direction 2 :  -0.649  -9.393  -0.006
 Born effective charge ion    3 direction 2 :  -9.703   1.460  -0.285
 Linear response progress:
  Degree of freedom:   9/ 60
       N       E                     dE             d eps       ncg     rms          rms(c)
RMM:   1    -0.524368827872E-01   -0.52437E-01   -0.35077E-02 27551   0.765E-01
RMM:   2    -0.509582182311E-01    0.14787E-02   -0.86006E-04 15543   0.337E-01    0.160E-01
RMM:   3    -0.506974865767E-01    0.26073E-03   -0.44087E-04 27535   0.665E-02    0.948E-02
RMM:   4    -0.506690117507E-01    0.28475E-04   -0.22435E-04 22794   0.528E-02    0.443E-02
RMM:   5    -0.506680318181E-01    0.97993E-06   -0.40258E-05 18229   0.303E-02    0.262E-02
RMM:   6    -0.506876217683E-01   -0.19590E-04   -0.30560E-05 20895   0.275E-02    0.447E-02
RMM:   7    -0.506768374078E-01    0.10784E-04   -0.12124E-05 17792   0.202E-02    0.106E-02
RMM:   8    -0.506763981965E-01    0.43921E-06   -0.20876E-06 22389   0.750E-03    0.335E-03
RMM:   9    -0.506777113435E-01   -0.13131E-05   -0.17911E-06 22761   0.475E-03    0.773E-03
RMM:  10    -0.506776914074E-01    0.19936E-07   -0.17097E-07 20073   0.343E-03    0.248E-03
RMM:  11    -0.506779593813E-01   -0.26797E-06   -0.52302E-08 22858   0.174E-03    0.174E-03
RMM:  12    -0.506786009498E-01   -0.64157E-06   -0.21613E-07 19504   0.138E-03    0.507E-04
RMM:  13    -0.506785805411E-01    0.20409E-07   -0.47400E-08 28115   0.524E-04    0.513E-04
RMM:  14    -0.506784551784E-01    0.12536E-06   -0.31335E-08 20722   0.381E-04    0.482E-04
RMM:  15    -0.506783572177E-01    0.97961E-07   -0.13280E-08 20497   0.255E-04    0.149E-04
RMM:  16    -0.506782843295E-01    0.72888E-07    0.76387E-09 22220   0.139E-04    0.160E-04
RMM:  17    -0.506781213015E-01    0.16303E-06   -0.71103E-09 19769   0.110E-04    0.753E-05
RMM:  18    -0.506781088833E-01    0.12418E-07    0.30671E-09 22072   0.659E-05    0.315E-05
RMM:  19    -0.506781177858E-01   -0.89024E-08    0.17029E-09 25831   0.326E-05    0.176E-05
 force on displaced ion       3 direction 3 :  -0.003  -0.000  -8.868
 Born effective charge ion    3 direction 3 :  -0.428   0.197   0.683
 Linear response progress:
  Degree of freedom:  10/ 60
       N       E                     dE             d eps       ncg     rms          rms(c)
RMM:   1    -0.586966423102E-01   -0.58697E-01   -0.47143E-02 27778   0.794E-01
RMM:   2    -0.554351234815E-01    0.32615E-02   -0.79389E-04 15364   0.390E-01    0.294E-01
RMM:   3    -0.664605495537E-01   -0.11025E-01   -0.23955E-02 15360   0.848E-01    0.103E+00
RMM:   4    -0.539590024418E-01    0.12502E-01   -0.37400E-03 15360   0.610E-01    0.246E-01
RMM:   5    -0.543717879086E-01   -0.41279E-03   -0.91515E-04 17337   0.167E-01    0.221E-01
RMM:   6    -0.544908887051E-01   -0.11910E-03   -0.11401E-03 15636   0.166E-01    0.190E-01
RMM:   7    -0.541965443625E-01    0.29434E-03   -0.41765E-04 15421   0.117E-01    0.631E-02
RMM:   8    -0.542036410999E-01   -0.70967E-05   -0.85977E-05 21554   0.420E-02    0.490E-02
RMM:   9    -0.541950286967E-01    0.86124E-05   -0.41373E-05 18015   0.330E-02    0.116E-02
RMM:  10    -0.541972936602E-01   -0.22650E-05   -0.14920E-05 25813   0.129E-02    0.104E-02
RMM:  11    -0.541942015737E-01    0.30921E-05   -0.30642E-06 19117   0.935E-03    0.429E-03
RMM:  12    -0.541943333423E-01   -0.13177E-06   -0.11309E-06 22315   0.432E-03    0.488E-03
RMM:  13    -0.541946668266E-01   -0.33348E-06   -0.51676E-07 20163   0.338E-03    0.325E-03
RMM:  14    -0.541947154247E-01   -0.48598E-07   -0.23501E-07 25521   0.151E-03    0.103E-03
RMM:  15    -0.541946681254E-01    0.47299E-07   -0.39287E-08 21536   0.849E-04    0.773E-04
RMM:  16    -0.541946001965E-01    0.67929E-07   -0.19029E-08 21446   0.553E-04    0.411E-04
RMM:  17    -0.541945104633E-01    0.89733E-07   -0.13075E-08 24415   0.330E-04    0.487E-04
RMM:  18    -0.541942616390E-01    0.24882E-06   -0.45906E-09 20302   0.249E-04    0.111E-04
RMM:  19    -0.541942466802E-01    0.14959E-07   -0.28768E-09 24337   0.112E-04    0.710E-05
RMM:  20    -0.541942378372E-01    0.88430E-08   -0.20319E-09 22433   0.671E-05    0.584E-05
 force on displaced ion       4 direction 1 :  -9.822  -0.176  -0.002
 Born effective charge ion    4 direction 1 :  19.647   7.710  -0.106
 Linear response progress:
  Degree of freedom:  11/ 60
       N       E                     dE             d eps       ncg     rms          rms(c)
RMM:   1    -0.599328882787E-01   -0.59933E-01   -0.54264E-02 28577   0.802E-01
RMM:   2    -0.549229411031E-01    0.50099E-02   -0.12581E-03 15362   0.412E-01    0.258E-01
RMM:   3    -0.659986691509E-01   -0.11076E-01   -0.11026E-02 15363   0.651E-01    0.113E+00
RMM:   4    -0.545646353956E-01    0.11434E-01   -0.44306E-03 15360   0.450E-01    0.276E-01
RMM:   5    -0.541203082079E-01    0.44433E-03   -0.84770E-04 15841   0.176E-01    0.142E-01
RMM:   6    -0.545588985993E-01   -0.43859E-03   -0.96855E-04 16341   0.151E-01    0.228E-01
RMM:   7    -0.541146872954E-01    0.44421E-03   -0.32040E-04 15436   0.107E-01    0.461E-02
RMM:   8    -0.541328488085E-01   -0.18162E-04   -0.84878E-05 20649   0.453E-02    0.412E-02
RMM:   9    -0.541248140330E-01    0.80348E-05   -0.30390E-05 18519   0.287E-02    0.754E-03
RMM:  10    -0.541238234490E-01    0.99058E-06   -0.10597E-05 26099   0.111E-02    0.960E-03
RMM:  11    -0.541209330811E-01    0.28904E-05   -0.20740E-06 19152   0.720E-03    0.245E-03
RMM:  12    -0.541214695582E-01   -0.53648E-06   -0.11986E-06 24014   0.379E-03    0.566E-03
RMM:  13    -0.541216433757E-01   -0.17382E-06   -0.33670E-07 20895   0.264E-03    0.236E-03
RMM:  14    -0.541216287003E-01    0.14675E-07   -0.10399E-07 22670   0.139E-03    0.124E-03
RMM:  15    -0.541213870971E-01    0.24160E-06   -0.61098E-08 19878   0.108E-03    0.733E-04
RMM:  16    -0.541213542173E-01    0.32880E-07   -0.41651E-08 25481   0.525E-04    0.530E-04
RMM:  17    -0.541213156182E-01    0.38599E-07   -0.16407E-08 21316   0.358E-04    0.455E-04
RMM:  18    -0.541212435001E-01    0.72118E-07   -0.14488E-08 19236   0.312E-04    0.149E-04
RMM:  19    -0.541212057245E-01    0.37776E-07   -0.13059E-08 25114   0.136E-04    0.149E-04
RMM:  20    -0.541211411718E-01    0.64553E-07   -0.12545E-08 19864   0.102E-04    0.354E-05
RMM:  21    -0.541211359841E-01    0.51878E-08   -0.11624E-08 29287   0.378E-05    0.328E-05
 force on displaced ion       4 direction 2 :  -0.176  -9.220  -0.000
 Born effective charge ion    4 direction 2 :  11.166  -3.277  -0.085
 Linear response progress:
  Degree of freedom:  12/ 60
       N       E                     dE             d eps       ncg     rms          rms(c)
RMM:   1    -0.512314822586E-01   -0.51231E-01   -0.33399E-02 27963   0.768E-01
RMM:   2    -0.495936176978E-01    0.16379E-02   -0.68062E-04 15556   0.339E-01    0.149E-01
RMM:   3    -0.494199093949E-01    0.17371E-03   -0.44041E-04 27621   0.669E-02    0.883E-02
RMM:   4    -0.493867837471E-01    0.33126E-04   -0.21120E-04 23401   0.483E-02    0.394E-02
RMM:   5    -0.493943836424E-01   -0.75999E-05   -0.36158E-05 18604   0.305E-02    0.347E-02
RMM:   6    -0.494070036680E-01   -0.12620E-04   -0.24364E-05 20252   0.255E-02    0.338E-02
RMM:   7    -0.494004931500E-01    0.65105E-05   -0.96400E-06 17252   0.179E-02    0.717E-03
RMM:   8    -0.494007314711E-01   -0.23832E-06   -0.24704E-06 23689   0.582E-03    0.334E-03
RMM:   9    -0.494023704298E-01   -0.16390E-05   -0.92242E-07 22554   0.373E-03    0.569E-03
RMM:  10    -0.494025667841E-01   -0.19635E-06   -0.33514E-07 20418   0.268E-03    0.214E-03
RMM:  11    -0.494029393129E-01   -0.37253E-06   -0.14184E-07 22054   0.152E-03    0.168E-03
RMM:  12    -0.494036474006E-01   -0.70809E-06    0.25906E-08 19217   0.124E-03    0.466E-04
RMM:  13    -0.494036679228E-01   -0.20522E-07   -0.27262E-08 28173   0.450E-04    0.448E-04
RMM:  14    -0.494036136573E-01    0.54265E-07   -0.17422E-08 21060   0.310E-04    0.386E-04
RMM:  15    -0.494035475992E-01    0.66058E-07   -0.29606E-09 20108   0.227E-04    0.111E-04
RMM:  16    -0.494034357482E-01    0.11185E-06    0.33758E-09 20882   0.139E-04    0.152E-04
RMM:  17    -0.494033344566E-01    0.10129E-06    0.14581E-09 19267   0.106E-04    0.313E-05
RMM:  18    -0.494033314013E-01    0.30553E-08    0.52353E-10 27109   0.424E-05    0.334E-05
 force on displaced ion       4 direction 3 :  -0.002  -0.000  -9.035
 Born effective charge ion    4 direction 3 :   0.173   0.174   6.458
 Linear response progress:
  Degree of freedom:  13/ 60
       N       E                     dE             d eps       ncg     rms          rms(c)
RMM:   1    -0.580334452866E-01   -0.58033E-01   -0.43799E-02 27263   0.810E-01
RMM:   2    -0.556396842073E-01    0.23938E-02   -0.77806E-04 15364   0.392E-01    0.311E-01
RMM:   3    -0.696015548304E-01   -0.13962E-01   -0.24617E-02 15360   0.906E-01    0.115E+00
RMM:   4    -0.540546796357E-01    0.15547E-01   -0.29758E-03 15360   0.652E-01    0.244E-01
RMM:   5    -0.545702747932E-01   -0.51560E-03   -0.85678E-04 17830   0.156E-01    0.190E-01
RMM:   6    -0.548522989751E-01   -0.28202E-03   -0.10530E-03 16425   0.161E-01    0.210E-01
RMM:   7    -0.545247569386E-01    0.32754E-03   -0.37219E-04 15482   0.111E-01    0.702E-02
RMM:   8    -0.545296774721E-01   -0.49205E-05   -0.94223E-05 21757   0.475E-02    0.578E-02
RMM:   9    -0.545395138709E-01   -0.98364E-05   -0.53656E-05 19811   0.380E-02    0.433E-02
RMM:  10    -0.545329913718E-01    0.65225E-05   -0.14810E-05 22340   0.185E-02    0.101E-02
RMM:  11    -0.545337596998E-01   -0.76833E-06   -0.55090E-06 20989   0.115E-02    0.108E-02
RMM:  12    -0.545318244813E-01    0.19352E-05   -0.22301E-06 18634   0.816E-03    0.418E-03
RMM:  13    -0.545320133474E-01   -0.18887E-06   -0.95120E-07 23867   0.373E-03    0.442E-03
RMM:  14    -0.545326642280E-01   -0.65088E-06   -0.40957E-07 20157   0.295E-03    0.346E-03
RMM:  15    -0.545325851815E-01    0.79046E-07   -0.14847E-07 22294   0.176E-03    0.108E-03
RMM:  16    -0.545325579070E-01    0.27275E-07   -0.55471E-08 23962   0.849E-04    0.104E-03
RMM:  17    -0.545324853567E-01    0.72550E-07   -0.92383E-09 19746   0.665E-04    0.318E-04
RMM:  18    -0.545324054506E-01    0.79906E-07    0.73582E-09 23831   0.352E-04    0.306E-04
RMM:  19    -0.545322349310E-01    0.17052E-06    0.16101E-08 19683   0.256E-04    0.130E-04
RMM:  20    -0.545322247600E-01    0.10171E-07    0.16210E-08 22753   0.141E-04    0.135E-04
RMM:  21    -0.545322167035E-01    0.80565E-08    0.18089E-08 19653   0.104E-04    0.255E-05
 force on displaced ion       5 direction 1 : -10.121  -0.333   0.005
 Born effective charge ion    5 direction 1 :   7.274   2.606  -0.456
 Linear response progress:
  Degree of freedom:  14/ 60
       N       E                     dE             d eps       ncg     rms          rms(c)
RMM:   1    -0.592631407692E-01   -0.59263E-01   -0.46636E-02 27418   0.804E-01
RMM:   2    -0.563344069599E-01    0.29287E-02   -0.52334E-04 15370   0.402E-01    0.310E-01
RMM:   3    -0.746473217014E-01   -0.18313E-01   -0.20317E-02 15360   0.857E-01    0.120E+00
RMM:   4    -0.548595293333E-01    0.19788E-01   -0.23115E-03 15360   0.592E-01    0.227E-01
RMM:   5    -0.551402962620E-01   -0.28077E-03   -0.10173E-03 15853   0.171E-01    0.141E-01
RMM:   6    -0.557625206742E-01   -0.62222E-03   -0.10108E-03 19285   0.156E-01    0.313E-01
RMM:   7    -0.551703822833E-01    0.59214E-03   -0.48020E-04 16102   0.125E-01    0.634E-02
RMM:   8    -0.551801433629E-01   -0.97611E-05   -0.10959E-04 20384   0.524E-02    0.513E-02
RMM:   9    -0.551820046576E-01   -0.18613E-05   -0.47124E-05 18920   0.358E-02    0.325E-02
RMM:  10    -0.551797734091E-01    0.22312E-05   -0.17074E-05 25514   0.148E-02    0.986E-03
RMM:  11    -0.551794624528E-01    0.31096E-06   -0.36839E-06 20030   0.977E-03    0.105E-02
RMM:  12    -0.551771609850E-01    0.23015E-05   -0.15689E-06 19352   0.679E-03    0.435E-03
RMM:  13    -0.551774471195E-01   -0.28613E-06   -0.65966E-07 22100   0.373E-03    0.442E-03
RMM:  14    -0.551780424842E-01   -0.59536E-06   -0.31270E-07 19309   0.277E-03    0.167E-03
RMM:  15    -0.551780988025E-01   -0.56318E-07   -0.17109E-07 25755   0.131E-03    0.126E-03
RMM:  16    -0.551780211072E-01    0.77695E-07   -0.34737E-08 21356   0.879E-04    0.124E-03
RMM:  17    -0.551778874461E-01    0.13366E-06   -0.13319E-08 19931   0.666E-04    0.252E-04
RMM:  18    -0.551777505721E-01    0.13687E-06   -0.52517E-09 23550   0.332E-04    0.304E-04
RMM:  19    -0.551775866043E-01    0.16397E-06    0.51926E-09 19432   0.232E-04    0.122E-04
RMM:  20    -0.551775572523E-01    0.29352E-07    0.45515E-09 24034   0.128E-04    0.123E-04
RMM:  21    -0.551775316630E-01    0.25589E-07    0.16620E-08 20232   0.936E-05    0.289E-05
RMM:  22    -0.551775334417E-01   -0.17787E-08    0.11968E-08 28504   0.419E-05    0.306E-05
 force on displaced ion       5 direction 2 :  -0.333 -11.047  -0.002
 Born effective charge ion    5 direction 2 :  11.070  -0.566  -0.451
 Linear response progress:
  Degree of freedom:  15/ 60
       N       E                     dE             d eps       ncg     rms          rms(c)
RMM:   1    -0.528851497928E-01   -0.52885E-01   -0.33117E-02 26702   0.761E-01
RMM:   2    -0.521642482880E-01    0.72090E-03   -0.13753E-03 15479   0.334E-01    0.166E-01
RMM:   3    -0.519317186343E-01    0.23253E-03   -0.55251E-04 27219   0.739E-02    0.966E-02
RMM:   4    -0.519863796908E-01   -0.54661E-04   -0.19168E-04 21009   0.535E-02    0.470E-02
RMM:   5    -0.519809873692E-01    0.53923E-05   -0.49949E-05 17297   0.349E-02    0.212E-02
RMM:   6    -0.520111066174E-01   -0.30119E-04   -0.33700E-05 20843   0.273E-02    0.457E-02
RMM:   7    -0.520004502164E-01    0.10656E-04   -0.14828E-05 18408   0.219E-02    0.127E-02
RMM:   8    -0.519996315657E-01    0.81865E-06   -0.36309E-06 24006   0.770E-03    0.362E-03
RMM:   9    -0.519975033823E-01    0.21282E-05   -0.18522E-06 21626   0.480E-03    0.466E-03
RMM:  10    -0.519969269642E-01    0.57642E-06   -0.95716E-08 19265   0.343E-03    0.177E-03
RMM:  11    -0.519980372079E-01   -0.11102E-05   -0.29163E-07 23587   0.194E-03    0.330E-03
RMM:  12    -0.519986290109E-01   -0.59180E-06   -0.62221E-08 20831   0.137E-03    0.755E-04
RMM:  13    -0.519986386711E-01   -0.96602E-08   -0.50722E-08 25360   0.574E-04    0.472E-04
 force on displaced ion       5 direction 3 :  -0.002  -0.003  -9.807
 Born effective charge ion    5 direction 3 :   0.105   0.021  -4.681
 Linear response progress:
  Degree of freedom:  16/ 60
       N       E                     dE             d eps       ncg     rms          rms(c)
RMM:   1    -0.570795609328E-01   -0.57080E-01   -0.47473E-02 28138   0.804E-01
RMM:   2    -0.534354109554E-01    0.36441E-02   -0.61783E-04 15404   0.394E-01    0.258E-01
RMM:   3    -0.635504630784E-01   -0.10115E-01   -0.15156E-02 15361   0.703E-01    0.108E+00
RMM:   4    -0.530339250789E-01    0.10517E-01   -0.43348E-03 15360   0.511E-01    0.289E-01
RMM:   5    -0.527342956509E-01    0.29963E-03   -0.74058E-04 17366   0.157E-01    0.136E-01
RMM:   6    -0.529325723007E-01   -0.19828E-03   -0.63742E-04 16729   0.120E-01    0.157E-01
RMM:   7    -0.527380794272E-01    0.19449E-03   -0.24409E-04 15669   0.869E-02    0.652E-02
RMM:   8    -0.527383078226E-01   -0.22840E-06   -0.78289E-05 22273   0.433E-02    0.499E-02
RMM:   9    -0.527513026619E-01   -0.12995E-04   -0.40220E-05 19677   0.320E-02    0.371E-02
RMM:  10    -0.527445408532E-01    0.67618E-05   -0.11790E-05 20404   0.183E-02    0.877E-03
RMM:  11    -0.527437163412E-01    0.82451E-06   -0.45961E-06 22309   0.107E-02    0.943E-03
RMM:  12    -0.527433381285E-01    0.37821E-06   -0.18032E-06 19518   0.669E-03    0.414E-03
RMM:  13    -0.527437700256E-01   -0.43190E-06   -0.10766E-06 26081   0.298E-03    0.425E-03
RMM:  14    -0.527444609549E-01   -0.69093E-06   -0.26087E-07 19596   0.257E-03    0.183E-03
RMM:  15    -0.527445914717E-01   -0.13052E-06   -0.88044E-08 21101   0.135E-03    0.994E-04
RMM:  16    -0.527446316241E-01   -0.40152E-07   -0.45500E-08 21963   0.830E-04    0.929E-04
RMM:  17    -0.527445770389E-01    0.54585E-07   -0.10196E-08 19623   0.561E-04    0.251E-04
RMM:  18    -0.527444525446E-01    0.12449E-06   -0.26920E-09 24469   0.305E-04    0.270E-04
RMM:  19    -0.527443133963E-01    0.13915E-06    0.26033E-09 19793   0.206E-04    0.121E-04
RMM:  20    -0.527442987760E-01    0.14620E-07    0.59039E-09 22982   0.125E-04    0.104E-04
RMM:  21    -0.527442892672E-01    0.95088E-08    0.69943E-09 20363   0.842E-05    0.303E-05
 force on displaced ion       6 direction 1 :  -9.413   0.001   0.000
 Born effective charge ion    6 direction 1 :   7.665   4.715  -0.286
 Linear response progress:
  Degree of freedom:  17/ 60
       N       E                     dE             d eps       ncg     rms          rms(c)
RMM:   1    -0.592915777426E-01   -0.59292E-01   -0.49301E-02 27874   0.792E-01
RMM:   2    -0.558831856204E-01    0.34084E-02   -0.78282E-04 15366   0.397E-01    0.301E-01
RMM:   3    -0.723605018867E-01   -0.16477E-01   -0.22355E-02 15360   0.854E-01    0.114E+00
RMM:   4    -0.545145403023E-01    0.17846E-01   -0.28641E-03 15360   0.585E-01    0.245E-01
RMM:   5    -0.546343314315E-01   -0.11979E-03   -0.99867E-04 15838   0.173E-01    0.147E-01
RMM:   6    -0.552845608833E-01   -0.65023E-03   -0.11556E-03 18597   0.166E-01    0.322E-01
RMM:   7    -0.546297206476E-01    0.65484E-03   -0.49917E-04 15796   0.127E-01    0.646E-02
RMM:   8    -0.546443323681E-01   -0.14612E-04   -0.11360E-04 20777   0.527E-02    0.587E-02
RMM:   9    -0.546428499148E-01    0.14825E-05   -0.49549E-05 19821   0.360E-02    0.412E-02
RMM:  10    -0.546358555001E-01    0.69944E-05   -0.16477E-05 22903   0.191E-02    0.870E-03
RMM:  11    -0.546351321850E-01    0.72332E-06   -0.49039E-06 21765   0.101E-02    0.101E-02
RMM:  12    -0.546340144338E-01    0.11178E-05   -0.19666E-06 19331   0.721E-03    0.528E-03
RMM:  13    -0.546343465424E-01   -0.33211E-06   -0.11955E-06 23934   0.417E-03    0.641E-03
RMM:  14    -0.546348715160E-01   -0.52497E-06   -0.37885E-07 19711   0.307E-03    0.185E-03
RMM:  15    -0.546349204646E-01   -0.48949E-07   -0.15545E-07 23639   0.141E-03    0.104E-03
RMM:  16    -0.546347596969E-01    0.16077E-06   -0.49746E-08 21701   0.847E-04    0.945E-04
RMM:  17    -0.546346460139E-01    0.11368E-06   -0.14417E-08 19913   0.575E-04    0.283E-04
RMM:  18    -0.546345017792E-01    0.14423E-06   -0.53973E-09 22604   0.362E-04    0.346E-04
RMM:  19    -0.546344067197E-01    0.95059E-07    0.21726E-09 19545   0.251E-04    0.134E-04
RMM:  20    -0.546343571625E-01    0.49557E-07    0.40162E-09 23861   0.141E-04    0.987E-05
RMM:  21    -0.546343467882E-01    0.10374E-07    0.93235E-09 21355   0.829E-05    0.317E-05
RMM:  22    -0.546343435830E-01    0.32051E-08    0.88561E-09 27443   0.396E-05    0.264E-05
 force on displaced ion       6 direction 2 :   0.001 -10.502  -0.001
 Born effective charge ion    6 direction 2 :  -4.363   2.490  -0.297
 Linear response progress:
  Degree of freedom:  18/ 60
       N       E                     dE             d eps       ncg     rms          rms(c)
RMM:   1    -0.533899489341E-01   -0.53390E-01   -0.35463E-02 26798   0.752E-01
RMM:   2    -0.522915640667E-01    0.10984E-02   -0.11734E-03 15458   0.329E-01    0.171E-01
RMM:   3    -0.519578148179E-01    0.33375E-03   -0.51137E-04 27272   0.710E-02    0.101E-01
RMM:   4    -0.519448250258E-01    0.12990E-04   -0.22872E-04 22740   0.542E-02    0.379E-02
RMM:   5    -0.519565289137E-01   -0.11704E-04   -0.50018E-05 18366   0.347E-02    0.342E-02
RMM:   6    -0.519746114143E-01   -0.18083E-04   -0.35454E-05 21380   0.278E-02    0.444E-02
RMM:   7    -0.519629257882E-01    0.11686E-04   -0.12807E-05 17886   0.218E-02    0.921E-03
RMM:   8    -0.519625908269E-01    0.33496E-06   -0.27229E-06 24257   0.659E-03    0.397E-03
RMM:   9    -0.519616321273E-01    0.95870E-06   -0.10667E-06 21473   0.469E-03    0.756E-03
RMM:  10    -0.519612026644E-01    0.42946E-06   -0.62227E-07 20232   0.334E-03    0.247E-03
RMM:  11    -0.519615606869E-01   -0.35802E-06   -0.37329E-07 21820   0.193E-03    0.191E-03
RMM:  12    -0.519625053863E-01   -0.94470E-06   -0.10576E-07 19354   0.144E-03    0.544E-04
RMM:  13    -0.519624833997E-01    0.21987E-07   -0.59036E-08 27423   0.545E-04    0.592E-04
RMM:  14    -0.519622983405E-01    0.18506E-06    0.15672E-08 20800   0.406E-04    0.530E-04
RMM:  15    -0.519621736801E-01    0.12466E-06    0.12521E-08 20116   0.285E-04    0.144E-04
RMM:  16    -0.519620852543E-01    0.88426E-07   -0.15097E-10 22351   0.148E-04    0.184E-04
RMM:  17    -0.519619590660E-01    0.12619E-06   -0.12715E-08 19561   0.119E-04    0.601E-05
RMM:  18    -0.519619527592E-01    0.63068E-08    0.27626E-09 24173   0.608E-05    0.405E-05
 force on displaced ion       6 direction 3 :   0.001  -0.002 -10.112
 Born effective charge ion    6 direction 3 :  -0.411  -0.218  -2.280
 Linear response progress:
  Degree of freedom:  19/ 60
       N       E                     dE             d eps       ncg     rms          rms(c)
RMM:   1    -0.580387805970E-01   -0.58039E-01   -0.43811E-02 27266   0.810E-01
RMM:   2    -0.556436938399E-01    0.23951E-02   -0.77952E-04 15364   0.392E-01    0.311E-01
RMM:   3    -0.695878015848E-01   -0.13944E-01   -0.24628E-02 15360   0.906E-01    0.115E+00
RMM:   4    -0.540534936967E-01    0.15534E-01   -0.29789E-03 15360   0.652E-01    0.244E-01
RMM:   5    -0.545702731859E-01   -0.51678E-03   -0.85697E-04 17833   0.156E-01    0.190E-01
RMM:   6    -0.548532200228E-01   -0.28295E-03   -0.10532E-03 16417   0.161E-01    0.210E-01
RMM:   7    -0.545249433241E-01    0.32828E-03   -0.37192E-04 15483   0.111E-01    0.702E-02
RMM:   8    -0.545295926360E-01   -0.46493E-05   -0.94066E-05 21751   0.475E-02    0.578E-02
RMM:   9    -0.545390686760E-01   -0.94760E-05   -0.53606E-05 19808   0.380E-02    0.433E-02
RMM:  10    -0.545323474120E-01    0.67213E-05   -0.14815E-05 22341   0.185E-02    0.101E-02
RMM:  11    -0.545332161792E-01   -0.86877E-06   -0.55194E-06 20990   0.115E-02    0.108E-02
RMM:  12    -0.545313073872E-01    0.19088E-05   -0.22394E-06 18634   0.816E-03    0.418E-03
RMM:  13    -0.545315164991E-01   -0.20911E-06   -0.94543E-07 23855   0.373E-03    0.442E-03
RMM:  14    -0.545321877933E-01   -0.67129E-06   -0.40397E-07 20155   0.295E-03    0.346E-03
RMM:  15    -0.545320643198E-01    0.12347E-06   -0.15281E-07 22331   0.175E-03    0.108E-03
RMM:  16    -0.545320366504E-01    0.27669E-07   -0.61482E-08 23897   0.848E-04    0.104E-03
RMM:  17    -0.545319624945E-01    0.74156E-07   -0.18418E-08 19728   0.664E-04    0.318E-04
RMM:  18    -0.545318828030E-01    0.79692E-07   -0.85987E-09 23815   0.351E-04    0.307E-04
RMM:  19    -0.545317150429E-01    0.16776E-06   -0.44061E-10 19674   0.254E-04    0.130E-04
RMM:  20    -0.545317031279E-01    0.11915E-07    0.12866E-09 22714   0.139E-04    0.135E-04
RMM:  21    -0.545316968415E-01    0.62864E-08   -0.25769E-09 19607   0.102E-04    0.256E-05
 force on displaced ion       7 direction 1 : -10.121  -0.333  -0.007
 Born effective charge ion    7 direction 1 :   7.280   2.641   0.317
 Linear response progress:
  Degree of freedom:  20/ 60
       N       E                     dE             d eps       ncg     rms          rms(c)
RMM:   1    -0.592565259938E-01   -0.59257E-01   -0.46637E-02 27416   0.804E-01
RMM:   2    -0.563275900622E-01    0.29289E-02   -0.52520E-04 15370   0.402E-01    0.310E-01
RMM:   3    -0.746268413215E-01   -0.18299E-01   -0.20315E-02 15360   0.857E-01    0.120E+00
RMM:   4    -0.548507360884E-01    0.19776E-01   -0.23127E-03 15360   0.592E-01    0.227E-01
RMM:   5    -0.551332244776E-01   -0.28249E-03   -0.10170E-03 15854   0.171E-01    0.141E-01
RMM:   6    -0.557563119741E-01   -0.62309E-03   -0.10106E-03 19287   0.156E-01    0.313E-01
RMM:   7    -0.551633652371E-01    0.59295E-03   -0.48021E-04 16104   0.125E-01    0.634E-02
RMM:   8    -0.551729046550E-01   -0.95394E-05   -0.10960E-04 20385   0.524E-02    0.513E-02
RMM:   9    -0.551746142644E-01   -0.17096E-05   -0.47162E-05 18913   0.358E-02    0.325E-02
RMM:  10    -0.551722275556E-01    0.23867E-05   -0.17108E-05 25515   0.148E-02    0.986E-03
RMM:  11    -0.551718239868E-01    0.40357E-06   -0.36991E-06 20026   0.977E-03    0.105E-02
RMM:  12    -0.551696463764E-01    0.21776E-05   -0.15596E-06 19351   0.679E-03    0.435E-03
RMM:  13    -0.551699461992E-01   -0.29982E-06   -0.64271E-07 22103   0.373E-03    0.442E-03
RMM:  14    -0.551705248046E-01   -0.57861E-06   -0.32020E-07 19311   0.277E-03    0.169E-03
RMM:  15    -0.551705728153E-01   -0.48011E-07   -0.17327E-07 25764   0.131E-03    0.127E-03
RMM:  16    -0.551705074054E-01    0.65410E-07   -0.34645E-08 21329   0.880E-04    0.122E-03
RMM:  17    -0.551703622757E-01    0.14513E-06   -0.15635E-08 19907   0.667E-04    0.252E-04
RMM:  18    -0.551702261459E-01    0.13613E-06   -0.41285E-09 23569   0.332E-04    0.304E-04
RMM:  19    -0.551700624699E-01    0.16368E-06    0.18946E-09 19425   0.232E-04    0.122E-04
RMM:  20    -0.551700355162E-01    0.26954E-07   -0.30558E-09 24081   0.128E-04    0.122E-04
RMM:  21    -0.551700079555E-01    0.27561E-07    0.92534E-09 20188   0.932E-05    0.288E-05
RMM:  22    -0.551700095701E-01   -0.16146E-08    0.85104E-09 28427   0.418E-05    0.307E-05
 force on displaced ion       7 direction 2 :  -0.333 -11.047  -0.005
 Born effective charge ion    7 direction 2 :  10.982  -0.546   0.417
 Linear response progress:
  Degree of freedom:  21/ 60
       N       E                     dE             d eps       ncg     rms          rms(c)
RMM:   1    -0.528846033411E-01   -0.52885E-01   -0.33109E-02 26702   0.761E-01
RMM:   2    -0.521644211619E-01    0.72018E-03   -0.13762E-03 15479   0.334E-01    0.166E-01
RMM:   3    -0.519317150709E-01    0.23271E-03   -0.55275E-04 27230   0.739E-02    0.965E-02
RMM:   4    -0.519707278578E-01   -0.39013E-04   -0.19491E-04 23346   0.482E-02    0.280E-02
RMM:   5    -0.519935941336E-01   -0.22866E-04   -0.36923E-05 18492   0.311E-02    0.372E-02
RMM:   6    -0.520055438435E-01   -0.11950E-04   -0.23056E-05 20324   0.227E-02    0.354E-02
RMM:   7    -0.519986988111E-01    0.68450E-05   -0.90246E-06 19455   0.168E-02    0.799E-03
RMM:   8    -0.519984869427E-01    0.21187E-06   -0.24046E-06 24094   0.635E-03    0.403E-03
RMM:   9    -0.519975601524E-01    0.92679E-06   -0.11945E-06 22516   0.378E-03    0.488E-03
RMM:  10    -0.519975437007E-01    0.16452E-07   -0.17222E-07 21886   0.237E-03    0.202E-03
RMM:  11    -0.519981736031E-01   -0.62990E-06   -0.26712E-08 19969   0.184E-03    0.196E-03
RMM:  12    -0.519988212011E-01   -0.64760E-06   -0.95202E-08 19301   0.131E-03    0.512E-04
RMM:  13    -0.519987594655E-01    0.61736E-07   -0.15766E-08 26148   0.524E-04    0.531E-04
RMM:  14    -0.519986088543E-01    0.15061E-06   -0.30848E-08 20484   0.371E-04    0.394E-04
RMM:  15    -0.519985505529E-01    0.58301E-07   -0.13035E-09 22200   0.223E-04    0.151E-04
RMM:  16    -0.519984402872E-01    0.11027E-06    0.83376E-09 21056   0.155E-04    0.196E-04
RMM:  17    -0.519983338676E-01    0.10642E-06   -0.24161E-09 19516   0.123E-04    0.635E-05
RMM:  18    -0.519983324777E-01    0.13899E-08   -0.20818E-09 24520   0.605E-05    0.513E-05
 force on displaced ion       7 direction 3 :  -0.000  -0.004  -9.808
 Born effective charge ion    7 direction 3 :   0.074   0.120  -4.704
 Linear response progress:
  Degree of freedom:  22/ 60
       N       E                     dE             d eps       ncg     rms          rms(c)
RMM:   1    -0.581830451061E-01   -0.58183E-01   -0.48362E-02 28048   0.798E-01
RMM:   2    -0.547351547646E-01    0.34479E-02   -0.62195E-04 15360   0.389E-01    0.276E-01
RMM:   3    -0.646822002609E-01   -0.99470E-02   -0.20011E-02 15360   0.787E-01    0.101E+00
RMM:   4    -0.537446716837E-01    0.10938E-01   -0.37980E-03 15360   0.568E-01    0.279E-01
RMM:   5    -0.537696941838E-01   -0.25023E-04   -0.84348E-04 17317   0.163E-01    0.179E-01
RMM:   6    -0.539522161090E-01   -0.18252E-03   -0.10312E-03 15624   0.158E-01    0.185E-01
RMM:   7    -0.536767755025E-01    0.27544E-03   -0.39436E-04 15386   0.115E-01    0.574E-02
RMM:   8    -0.536928030678E-01   -0.16028E-04   -0.80350E-05 22934   0.398E-02    0.576E-02
RMM:   9    -0.536860248575E-01    0.67782E-05   -0.44851E-05 19040   0.353E-02    0.284E-02
RMM:  10    -0.536839192742E-01    0.21056E-05   -0.12743E-05 23530   0.149E-02    0.111E-02
RMM:  11    -0.536832762575E-01    0.64302E-06   -0.45294E-06 19910   0.107E-02    0.106E-02
RMM:  12    -0.536795149899E-01    0.37613E-05   -0.20196E-06 18465   0.804E-03    0.451E-03
RMM:  13    -0.536801039405E-01   -0.58895E-06   -0.64808E-07 23969   0.343E-03    0.560E-03
RMM:  14    -0.536809209066E-01   -0.81697E-06   -0.41526E-07 20137   0.320E-03    0.287E-03
RMM:  15    -0.536809021883E-01    0.18718E-07   -0.15595E-07 20717   0.173E-03    0.967E-04
RMM:  16    -0.536807419434E-01    0.16024E-06   -0.59343E-08 23547   0.921E-04    0.568E-04
RMM:  17    -0.536806391313E-01    0.10281E-06   -0.28548E-08 22636   0.470E-04    0.283E-04
RMM:  18    -0.536804422628E-01    0.19687E-06   -0.80934E-09 23440   0.258E-04    0.274E-04
RMM:  19    -0.536802750521E-01    0.16721E-06   -0.38065E-09 19803   0.199E-04    0.113E-04
RMM:  20    -0.536802520678E-01    0.22984E-07   -0.34997E-09 21720   0.126E-04    0.123E-04
RMM:  21    -0.536802547930E-01   -0.27252E-08   -0.22291E-09 19970   0.906E-05    0.239E-05
 force on displaced ion       8 direction 1 :  -9.745  -0.399  -0.005
 Born effective charge ion    8 direction 1 :  -2.122  -3.332  -0.076
 Linear response progress:
  Degree of freedom:  23/ 60
       N       E                     dE             d eps       ncg     rms          rms(c)
RMM:   1    -0.590841435842E-01   -0.59084E-01   -0.53723E-02 28754   0.802E-01
RMM:   2    -0.542152753321E-01    0.48689E-02   -0.26205E-04 15366   0.407E-01    0.257E-01
RMM:   3    -0.655939937938E-01   -0.11379E-01   -0.13462E-02 15360   0.684E-01    0.111E+00
RMM:   4    -0.539798046007E-01    0.11614E-01   -0.42895E-03 15360   0.474E-01    0.299E-01
RMM:   5    -0.534669206537E-01    0.51288E-03   -0.84337E-04 15752   0.175E-01    0.135E-01
RMM:   6    -0.538808763136E-01   -0.41396E-03   -0.96901E-04 16278   0.152E-01    0.230E-01
RMM:   7    -0.534650461647E-01    0.41583E-03   -0.35687E-04 15501   0.110E-01    0.614E-02
RMM:   8    -0.534773433258E-01   -0.12297E-04   -0.80332E-05 22354   0.437E-02    0.571E-02
RMM:   9    -0.534801394615E-01   -0.27961E-05   -0.44520E-05 19880   0.331E-02    0.357E-02
RMM:  10    -0.534711229477E-01    0.90165E-05   -0.14128E-05 19836   0.199E-02    0.741E-03
RMM:  11    -0.534694884715E-01    0.16345E-05   -0.48330E-06 23120   0.997E-03    0.937E-03
RMM:  12    -0.534682068461E-01    0.12816E-05   -0.18607E-06 18765   0.693E-03    0.419E-03
RMM:  13    -0.534691209502E-01   -0.91410E-06   -0.12317E-06 25285   0.353E-03    0.546E-03
RMM:  14    -0.534701677849E-01   -0.10468E-05   -0.28484E-07 19885   0.271E-03    0.140E-03
RMM:  15    -0.534702475607E-01   -0.79776E-07   -0.10057E-07 23670   0.122E-03    0.979E-04
RMM:  16    -0.534700008219E-01    0.24674E-06   -0.31807E-08 20697   0.771E-04    0.565E-04
RMM:  17    -0.534699359096E-01    0.64912E-07   -0.11990E-08 22691   0.406E-04    0.280E-04
RMM:  18    -0.534697917635E-01    0.14415E-06   -0.41958E-09 20855   0.311E-04    0.316E-04
RMM:  19    -0.534697133514E-01    0.78412E-07   -0.25922E-09 19967   0.219E-04    0.143E-04
RMM:  20    -0.534696744546E-01    0.38897E-07   -0.18331E-09 23356   0.127E-04    0.864E-05
RMM:  21    -0.534696710882E-01    0.33664E-08   -0.12448E-09 21868   0.711E-05    0.253E-05
 force on displaced ion       8 direction 2 :  -0.398  -9.138   0.000
 Born effective charge ion    8 direction 2 :   4.464   0.187   0.045
 Linear response progress:
  Degree of freedom:  24/ 60
       N       E                     dE             d eps       ncg     rms          rms(c)
RMM:   1    -0.523327318469E-01   -0.52333E-01   -0.35248E-02 27533   0.769E-01
RMM:   2    -0.508401011823E-01    0.14926E-02   -0.82634E-04 15543   0.338E-01    0.159E-01
RMM:   3    -0.505933259881E-01    0.24678E-03   -0.45139E-04 27540   0.674E-02    0.942E-02
RMM:   4    -0.505570889068E-01    0.36237E-04   -0.22449E-04 24176   0.494E-02    0.248E-02
RMM:   5    -0.505783321684E-01   -0.21243E-04   -0.34110E-05 18427   0.301E-02    0.385E-02
RMM:   6    -0.505822013461E-01   -0.38692E-05   -0.19114E-05 20960   0.218E-02    0.312E-02
RMM:   7    -0.505765743938E-01    0.56270E-05   -0.78636E-06 19024   0.151E-02    0.584E-03
RMM:   8    -0.505770162443E-01   -0.44185E-06   -0.16887E-06 24134   0.567E-03    0.436E-03
RMM:   9    -0.505785358716E-01   -0.15196E-05   -0.10891E-06 22041   0.328E-03    0.413E-03
RMM:  10    -0.505787170407E-01   -0.18117E-06   -0.39102E-07 20665   0.235E-03    0.224E-03
RMM:  11    -0.505789515604E-01   -0.23452E-06   -0.60897E-08 22677   0.149E-03    0.197E-03
RMM:  12    -0.505793240847E-01   -0.37252E-06   -0.41231E-08 19334   0.124E-03    0.478E-04
RMM:  13    -0.505792891301E-01    0.34955E-07   -0.31527E-08 25464   0.521E-04    0.520E-04
RMM:  14    -0.505791359701E-01    0.15316E-06   -0.27257E-09 19884   0.401E-04    0.424E-04
RMM:  15    -0.505790880959E-01    0.47874E-07   -0.16773E-09 23114   0.208E-04    0.140E-04
RMM:  16    -0.505789527065E-01    0.13539E-06    0.15670E-08 19949   0.160E-04    0.157E-04
RMM:  17    -0.505788654510E-01    0.87255E-07   -0.14848E-08 19316   0.118E-04    0.485E-05
RMM:  18    -0.505788592653E-01    0.61858E-08   -0.52744E-10 25950   0.526E-05    0.553E-05
 force on displaced ion       8 direction 3 :   0.000  -0.006  -8.798
 Born effective charge ion    8 direction 3 :  -0.631  -0.028   5.915
 Linear response progress:
  Degree of freedom:  25/ 60
       N       E                     dE             d eps       ncg     rms          rms(c)
RMM:   1    -0.583207734738E-01   -0.58321E-01   -0.43468E-02 27091   0.817E-01
RMM:   2    -0.561100558287E-01    0.22107E-02   -0.72653E-04 15364   0.394E-01    0.318E-01
RMM:   3    -0.709438941921E-01   -0.14834E-01   -0.25667E-02 15360   0.923E-01    0.117E+00
RMM:   4    -0.543841838543E-01    0.16560E-01   -0.25980E-03 15360   0.662E-01    0.231E-01
RMM:   5    -0.550134643779E-01   -0.62928E-03   -0.89563E-04 16934   0.158E-01    0.190E-01
RMM:   6    -0.553781835892E-01   -0.36472E-03   -0.11879E-03 16763   0.172E-01    0.241E-01
RMM:   7    -0.549788863839E-01    0.39930E-03   -0.42028E-04 15440   0.120E-01    0.739E-02
RMM:   8    -0.549725939579E-01    0.62924E-05   -0.99752E-05 21525   0.481E-02    0.547E-02
RMM:   9    -0.549895026644E-01   -0.16909E-04   -0.60634E-05 19456   0.403E-02    0.488E-02
RMM:  10    -0.549798308740E-01    0.96718E-05   -0.19473E-05 22973   0.201E-02    0.116E-02
RMM:  11    -0.549805927613E-01   -0.76189E-06   -0.61819E-06 20677   0.125E-02    0.116E-02
RMM:  12    -0.549788410597E-01    0.17517E-05   -0.25361E-06 18784   0.893E-03    0.500E-03
RMM:  13    -0.549789850162E-01   -0.14396E-06   -0.10369E-06 25292   0.350E-03    0.549E-03
RMM:  14    -0.549793913229E-01   -0.40631E-06   -0.45780E-07 19486   0.335E-03    0.284E-03
RMM:  15    -0.549793255491E-01    0.65774E-07   -0.13516E-07 20595   0.182E-03    0.102E-03
RMM:  16    -0.549793149803E-01    0.10569E-07   -0.70760E-08 24959   0.927E-04    0.110E-03
RMM:  17    -0.549792572074E-01    0.57773E-07   -0.11389E-08 19160   0.714E-04    0.315E-04
RMM:  18    -0.549791768315E-01    0.80376E-07   -0.82690E-09 23661   0.346E-04    0.317E-04
RMM:  19    -0.549790126257E-01    0.16421E-06    0.78300E-09 20026   0.242E-04    0.135E-04
RMM:  20    -0.549789908167E-01    0.21809E-07    0.11495E-08 22600   0.145E-04    0.136E-04
RMM:  21    -0.549789869315E-01    0.38852E-08    0.11251E-08 19442   0.110E-04    0.237E-05
 force on displaced ion       9 direction 1 : -10.169  -0.397  -0.010
 Born effective charge ion    9 direction 1 :  -7.999  -3.260  -0.108
 Linear response progress:
  Degree of freedom:  26/ 60
       N       E                     dE             d eps       ncg     rms          rms(c)
RMM:   1    -0.591616325765E-01   -0.59162E-01   -0.46119E-02 27513   0.810E-01
RMM:   2    -0.561711725367E-01    0.29905E-02   -0.61032E-04 15364   0.404E-01    0.312E-01
RMM:   3    -0.759437905559E-01   -0.19773E-01   -0.20870E-02 15360   0.856E-01    0.125E+00
RMM:   4    -0.548561190707E-01    0.21088E-01   -0.28885E-03 15360   0.590E-01    0.245E-01
RMM:   5    -0.550121312168E-01   -0.15601E-03   -0.10018E-03 16011   0.170E-01    0.151E-01
RMM:   6    -0.555882279033E-01   -0.57610E-03   -0.10596E-03 18731   0.160E-01    0.293E-01
RMM:   7    -0.550485263032E-01    0.53970E-03   -0.40274E-04 15786   0.116E-01    0.604E-02
RMM:   8    -0.550603282842E-01   -0.11802E-04   -0.10994E-04 20333   0.525E-02    0.534E-02
RMM:   9    -0.550709760418E-01   -0.10648E-04   -0.47563E-05 20109   0.358E-02    0.461E-02
RMM:  10    -0.550625472001E-01    0.84288E-05   -0.16821E-05 22703   0.200E-02    0.774E-03
RMM:  11    -0.550621920235E-01    0.35518E-06   -0.47209E-06 22809   0.904E-03    0.952E-03
RMM:  12    -0.550605623352E-01    0.16297E-05   -0.19701E-06 19114   0.658E-03    0.356E-03
RMM:  13    -0.550610146286E-01   -0.45229E-06   -0.10189E-06 23658   0.369E-03    0.592E-03
RMM:  14    -0.550607679778E-01    0.24665E-06   -0.20863E-07 21221   0.249E-03    0.143E-03
RMM:  15    -0.550607249495E-01    0.43028E-07    0.28858E-08 25042   0.115E-03    0.104E-03
RMM:  16    -0.550604921039E-01    0.23285E-06    0.10291E-07 20417   0.758E-04    0.566E-04
[...]
RMM:   6    -0.167857145562E+00    0.52333E-03   -0.80174E-04 15444   0.148E-01    0.157E-01
RMM:   7    -0.167719483701E+00    0.13766E-03   -0.25601E-04 15364   0.910E-02    0.456E-02
RMM:   8    -0.167736869378E+00   -0.17386E-04   -0.85639E-05 18605   0.419E-02    0.513E-02
RMM:   9    -0.167719428340E+00    0.17441E-04   -0.33970E-05 16998   0.293E-02    0.218E-02
RMM:  10    -0.167716938661E+00    0.24897E-05   -0.12206E-05 26244   0.118E-02    0.138E-02
RMM:  11    -0.167704723643E+00    0.12215E-04   -0.50704E-06 17113   0.121E-02    0.992E-03
RMM:  12    -0.167699122208E+00    0.56014E-05   -0.21152E-06 17928   0.757E-03    0.583E-03
RMM:  13    -0.167695288785E+00    0.38334E-05   -0.93511E-07 19501   0.511E-03    0.635E-03
RMM:  14    -0.167694069385E+00    0.12194E-05   -0.33052E-07 20414   0.312E-03    0.207E-03
RMM:  15    -0.167693799205E+00    0.27018E-06   -0.86683E-08 24354   0.121E-03    0.912E-04
RMM:  16    -0.167692796649E+00    0.10026E-05   -0.30049E-08 20885   0.736E-04    0.447E-04
RMM:  17    -0.167692403390E+00    0.39326E-06   -0.13825E-08 23537   0.392E-04    0.378E-04
RMM:  18    -0.167691163138E+00    0.12403E-05   -0.41153E-09 20331   0.280E-04    0.288E-04
RMM:  19    -0.167690916025E+00    0.24711E-06   -0.13533E-09 20128   0.191E-04    0.102E-04
RMM:  20    -0.167690934803E+00   -0.18778E-07   -0.74943E-10 24385   0.104E-04    0.938E-05
RMM:  21    -0.167690946853E+00   -0.12050E-07    0.66146E-10 20323   0.694E-05    0.292E-05
RMM:  22    -0.167690939332E+00    0.75212E-08    0.76571E-10 27709   0.339E-05    0.228E-05
 force on displaced ion      18 direction 1 :  -9.606   0.153  -0.002
 Born effective charge ion   18 direction 1 :  -6.001  -0.510   0.220
 Linear response progress:
  Degree of freedom:  53/ 60
       N       E                     dE             d eps       ncg     rms          rms(c)
RMM:   1    -0.170657057203E+00   -0.17066E+00   -0.87394E-02 31732   0.973E-01
RMM:   2    -0.168120205344E+00    0.25369E-02   -0.24900E-03 15384   0.350E-01    0.258E-01
RMM:   3    -0.174365488791E+00   -0.62453E-02   -0.70857E-03 15360   0.444E-01    0.745E-01
RMM:   4    -0.167629572163E+00    0.67359E-02   -0.26064E-03 15360   0.336E-01    0.178E-01
RMM:   5    -0.167931153503E+00   -0.30158E-03   -0.90958E-04 15360   0.158E-01    0.255E-01
RMM:   6    -0.168266785970E+00   -0.33563E-03   -0.92870E-04 16859   0.153E-01    0.236E-01
RMM:   7    -0.167888919646E+00    0.37787E-03   -0.36379E-04 15360   0.115E-01    0.371E-02
RMM:   8    -0.167915174556E+00   -0.26255E-04   -0.80121E-05 19080   0.425E-02    0.559E-02
RMM:   9    -0.167901908336E+00    0.13266E-04   -0.32446E-05 20116   0.266E-02    0.223E-02
RMM:  10    -0.167896583671E+00    0.53247E-05   -0.81867E-06 20924   0.138E-02    0.783E-03
RMM:  11    -0.167881624274E+00    0.14959E-04   -0.27699E-06 19577   0.804E-03    0.689E-03
RMM:  12    -0.167879105577E+00    0.25187E-05   -0.11135E-06 18431   0.516E-03    0.506E-03
RMM:  13    -0.167879290702E+00   -0.18512E-06   -0.81882E-07 19798   0.424E-03    0.553E-03
RMM:  14    -0.167879162130E+00    0.12857E-06   -0.39445E-07 18827   0.319E-03    0.178E-03
RMM:  15    -0.167879001067E+00    0.16106E-06   -0.30129E-07 29394   0.112E-03    0.990E-04
RMM:  16    -0.167877657041E+00    0.13440E-05   -0.19184E-08 19858   0.675E-04    0.687E-04
RMM:  17    -0.167876899679E+00    0.75736E-06   -0.97216E-09 19787   0.517E-04    0.300E-04
RMM:  18    -0.167875387343E+00    0.15123E-05   -0.32818E-09 23470   0.241E-04    0.222E-04
RMM:  19    -0.167875284840E+00    0.10250E-06    0.70196E-12 19686   0.181E-04    0.862E-05
RMM:  20    -0.167875299463E+00   -0.14623E-07    0.89911E-10 25662   0.934E-05    0.513E-05
RMM:  21    -0.167875289237E+00    0.10226E-07    0.23282E-09 23502   0.449E-05    0.353E-05
RMM:  22    -0.167875257867E+00    0.31370E-07    0.17126E-09 21938   0.318E-05    0.170E-05
RMM:  23    -0.167875254106E+00    0.37608E-08    0.23362E-09 22848   0.199E-05    0.166E-05
 force on displaced ion      18 direction 2 :   0.154  -9.026   0.003
 Born effective charge ion   18 direction 2 :   2.955  -2.605   0.484
 Linear response progress:
  Degree of freedom:  54/ 60
       N       E                     dE             d eps       ncg     rms          rms(c)
RMM:   1    -0.165921221387E+00   -0.16592E+00   -0.82887E-02 31141   0.969E-01
RMM:   2    -0.164689807121E+00    0.12314E-02   -0.22676E-03 15390   0.319E-01    0.219E-01
RMM:   3    -0.164423408623E+00    0.26640E-03   -0.32586E-04 25264   0.592E-02    0.127E-01
RMM:   4    -0.164757967345E+00   -0.33456E-03   -0.42037E-04 23380   0.659E-02    0.286E-02
RMM:   5    -0.164763811616E+00   -0.58443E-05   -0.42308E-05 15776   0.332E-02    0.435E-02
RMM:   6    -0.164726503435E+00    0.37308E-04   -0.15453E-05 18873   0.216E-02    0.292E-02
RMM:   7    -0.164715688264E+00    0.10815E-04   -0.65977E-06 18066   0.142E-02    0.826E-03
RMM:   8    -0.164714637689E+00    0.10506E-05   -0.29042E-06 19734   0.889E-03    0.119E-02
RMM:   9    -0.164710615734E+00    0.40220E-05   -0.13682E-06 17794   0.639E-03    0.603E-03
RMM:  10    -0.164709751622E+00    0.86411E-06   -0.35391E-07 24546   0.259E-03    0.225E-03
RMM:  11    -0.164707976257E+00    0.17754E-05   -0.92721E-08 20358   0.167E-03    0.182E-03
RMM:  12    -0.164705429088E+00    0.25472E-05   -0.69214E-08 19780   0.125E-03    0.579E-04
RMM:  13    -0.164704099446E+00    0.13296E-05   -0.40117E-08 24470   0.630E-04    0.687E-04
RMM:  14    -0.164701824852E+00    0.22746E-05   -0.11477E-08 19655   0.466E-04    0.468E-04
RMM:  15    -0.164701538257E+00    0.28660E-06   -0.41404E-09 23838   0.249E-04    0.155E-04
RMM:  16    -0.164701448714E+00    0.89543E-07   -0.43322E-09 21563   0.155E-04    0.192E-04
RMM:  17    -0.164701391546E+00    0.57167E-07    0.10553E-09 20431   0.129E-04    0.688E-05
RMM:  18    -0.164701419998E+00   -0.28451E-07   -0.11722E-09 23656   0.716E-05    0.582E-05
RMM:  19    -0.164701475224E+00   -0.55227E-07   -0.19663E-10 20303   0.472E-05    0.154E-05
RMM:  20    -0.164701481208E+00   -0.59835E-08   -0.16472E-10 27460   0.234E-05    0.162E-05
 force on displaced ion      18 direction 3 :  -0.002   0.001  -9.417
 Born effective charge ion   18 direction 3 :   0.414  -0.102  -6.665
 Linear response progress:
  Degree of freedom:  55/ 60
       N       E                     dE             d eps       ncg     rms          rms(c)
RMM:   1    -0.170048869158E+00   -0.17005E+00   -0.87131E-02 31659   0.981E-01
RMM:   2    -0.167972917944E+00    0.20760E-02   -0.24499E-03 15364   0.343E-01    0.266E-01
RMM:   3    -0.171968899171E+00   -0.39960E-02   -0.85550E-03 15360   0.482E-01    0.624E-01
RMM:   4    -0.167371395939E+00    0.45975E-02   -0.30023E-03 15360   0.367E-01    0.145E-01
RMM:   5    -0.168378772451E+00   -0.10074E-02   -0.13039E-03 15362   0.187E-01    0.359E-01
RMM:   6    -0.167854431357E+00    0.52434E-03   -0.80186E-04 15445   0.148E-01    0.157E-01
RMM:   7    -0.167716706444E+00    0.13772E-03   -0.25598E-04 15364   0.910E-02    0.456E-02
RMM:   8    -0.167734236764E+00   -0.17530E-04   -0.85666E-05 18605   0.419E-02    0.513E-02
RMM:   9    -0.167716920449E+00    0.17316E-04   -0.33961E-05 17000   0.293E-02    0.218E-02
RMM:  10    -0.167714623150E+00    0.22973E-05   -0.12202E-05 26240   0.118E-02    0.138E-02
RMM:  11    -0.167702329132E+00    0.12294E-04   -0.50737E-06 17109   0.121E-02    0.992E-03
RMM:  12    -0.167696760726E+00    0.55684E-05   -0.21163E-06 17929   0.758E-03    0.583E-03
RMM:  13    -0.167692909450E+00    0.38513E-05   -0.93497E-07 19502   0.511E-03    0.634E-03
RMM:  14    -0.167691695232E+00    0.12142E-05   -0.33270E-07 20415   0.311E-03    0.207E-03
RMM:  15    -0.167691439742E+00    0.25549E-06   -0.88436E-08 24389   0.121E-03    0.913E-04
RMM:  16    -0.167690431142E+00    0.10086E-05   -0.32490E-08 20900   0.737E-04    0.448E-04
RMM:  17    -0.167690045519E+00    0.38562E-06   -0.14467E-08 23554   0.392E-04    0.377E-04
RMM:  18    -0.167688806969E+00    0.12386E-05   -0.50529E-09 20356   0.282E-04    0.288E-04
RMM:  19    -0.167688553314E+00    0.25365E-06   -0.15882E-09 20132   0.193E-04    0.102E-04
RMM:  20    -0.167688572157E+00   -0.18843E-07   -0.90658E-10 24475   0.105E-04    0.937E-05
RMM:  21    -0.167688584094E+00   -0.11937E-07    0.10040E-09 20395   0.706E-05    0.292E-05
RMM:  22    -0.167688576709E+00    0.73847E-08    0.14170E-09 27735   0.353E-05    0.228E-05
 force on displaced ion      19 direction 1 :  -9.618   0.152   0.004
 Born effective charge ion   19 direction 1 :  -5.888  -0.505  -0.223
 Linear response progress:
  Degree of freedom:  56/ 60
       N       E                     dE             d eps       ncg     rms          rms(c)
RMM:   1    -0.170650752445E+00   -0.17065E+00   -0.87309E-02 31741   0.973E-01
RMM:   2    -0.168122648993E+00    0.25281E-02   -0.24893E-03 15383   0.350E-01    0.258E-01
RMM:   3    -0.174370054974E+00   -0.62474E-02   -0.70852E-03 15360   0.445E-01    0.745E-01
RMM:   4    -0.167632651339E+00    0.67374E-02   -0.26068E-03 15360   0.336E-01    0.178E-01
RMM:   5    -0.167933560385E+00   -0.30091E-03   -0.90964E-04 15360   0.158E-01    0.255E-01
RMM:   6    -0.168268333595E+00   -0.33477E-03   -0.92878E-04 16861   0.153E-01    0.236E-01
RMM:   7    -0.167891555976E+00    0.37678E-03   -0.36383E-04 15360   0.115E-01    0.371E-02
RMM:   8    -0.167918554378E+00   -0.26998E-04   -0.80136E-05 19084   0.425E-02    0.559E-02
RMM:   9    -0.167904787947E+00    0.13766E-04   -0.32458E-05 20117   0.266E-02    0.223E-02
RMM:  10    -0.167899476780E+00    0.53112E-05   -0.81834E-06 20927   0.138E-02    0.783E-03
RMM:  11    -0.167884438997E+00    0.15038E-04   -0.27718E-06 19571   0.804E-03    0.690E-03
RMM:  12    -0.167881889169E+00    0.25498E-05   -0.11124E-06 18436   0.516E-03    0.506E-03
RMM:  13    -0.167882101062E+00   -0.21189E-06   -0.82206E-07 19789   0.425E-03    0.554E-03
RMM:  14    -0.167881988527E+00    0.11254E-06   -0.39642E-07 18845   0.319E-03    0.178E-03
RMM:  15    -0.167881825732E+00    0.16280E-06   -0.30150E-07 29389   0.112E-03    0.989E-04
RMM:  16    -0.167880473167E+00    0.13526E-05   -0.20439E-08 19869   0.675E-04    0.686E-04
RMM:  17    -0.167879722097E+00    0.75107E-06   -0.84161E-09 19806   0.518E-04    0.300E-04
RMM:  18    -0.167878206320E+00    0.15158E-05   -0.46915E-09 23520   0.241E-04    0.222E-04
RMM:  19    -0.167878105486E+00    0.10083E-06   -0.14046E-09 19720   0.182E-04    0.861E-05
RMM:  20    -0.167878119243E+00   -0.13757E-07    0.59893E-10 25727   0.941E-05    0.514E-05
RMM:  21    -0.167878109053E+00    0.10190E-07    0.16418E-09 23522   0.460E-05    0.353E-05
RMM:  22    -0.167878077469E+00    0.31584E-07    0.14070E-09 22008   0.329E-05    0.170E-05
RMM:  23    -0.167878074131E+00    0.33379E-08    0.88377E-10 22791   0.211E-05    0.166E-05
 force on displaced ion      19 direction 2 :   0.152  -9.023   0.003
 Born effective charge ion   19 direction 2 :   2.980  -2.674  -0.372
 Linear response progress:
  Degree of freedom:  57/ 60
       N       E                     dE             d eps       ncg     rms          rms(c)
RMM:   1    -0.165914959052E+00   -0.16591E+00   -0.82824E-02 31144   0.969E-01
RMM:   2    -0.164689639853E+00    0.12253E-02   -0.22675E-03 15390   0.319E-01    0.219E-01
RMM:   3    -0.164423287046E+00    0.26635E-03   -0.32604E-04 25261   0.592E-02    0.127E-01
RMM:   4    -0.164759324714E+00   -0.33604E-03   -0.42046E-04 23184   0.663E-02    0.310E-02
RMM:   5    -0.164762318821E+00   -0.29941E-05   -0.38852E-05 15734   0.322E-02    0.362E-02
RMM:   6    -0.164726969123E+00    0.35350E-04   -0.14546E-05 18396   0.195E-02    0.297E-02
RMM:   7    -0.164715551939E+00    0.11417E-04   -0.60232E-06 18607   0.144E-02    0.902E-03
RMM:   8    -0.164714411629E+00    0.11403E-05   -0.32118E-06 20384   0.888E-03    0.115E-02
RMM:   9    -0.164710321386E+00    0.40902E-05   -0.10570E-06 17938   0.604E-03    0.579E-03
RMM:  10    -0.164709474408E+00    0.84698E-06   -0.38506E-07 23744   0.282E-03    0.248E-03
RMM:  11    -0.164708158265E+00    0.13161E-05   -0.10277E-07 21453   0.163E-03    0.192E-03
RMM:  12    -0.164705223022E+00    0.29352E-05   -0.70571E-08 19899   0.125E-03    0.595E-04
RMM:  13    -0.164703979265E+00    0.12438E-05   -0.22208E-08 24607   0.636E-04    0.751E-04
RMM:  14    -0.164701877838E+00    0.21014E-05   -0.31459E-08 20216   0.510E-04    0.619E-04
RMM:  15    -0.164701389931E+00    0.48791E-06    0.46891E-09 21287   0.304E-04    0.151E-04
RMM:  16    -0.164701293918E+00    0.96013E-07   -0.31663E-09 23174   0.162E-04    0.161E-04
RMM:  17    -0.164701230137E+00    0.63780E-07   -0.16525E-09 19805   0.129E-04    0.765E-05
RMM:  18    -0.164701248411E+00   -0.18274E-07   -0.39376E-10 24630   0.688E-05    0.589E-05
RMM:  19    -0.164701324551E+00   -0.76140E-07   -0.83416E-10 20805   0.462E-05    0.169E-05
RMM:  20    -0.164701329119E+00   -0.45683E-08    0.29547E-11 26773   0.230E-05    0.159E-05
 force on displaced ion      19 direction 3 :   0.003   0.004  -9.417
 Born effective charge ion   19 direction 3 :  -0.456  -0.073  -6.617
 Linear response progress:
  Degree of freedom:  58/ 60
       N       E                     dE             d eps       ncg     rms          rms(c)
RMM:   1    -0.169588771382E+00   -0.16959E+00   -0.82696E-02 31549   0.957E-01
RMM:   2    -0.167889607748E+00    0.16992E-02   -0.24461E-03 15379   0.336E-01    0.261E-01
RMM:   3    -0.171698164986E+00   -0.38086E-02   -0.87946E-03 15360   0.487E-01    0.610E-01
RMM:   4    -0.167248347471E+00    0.44498E-02   -0.30419E-03 15360   0.370E-01    0.135E-01
RMM:   5    -0.167984644853E+00   -0.73630E-03   -0.13440E-03 15362   0.187E-01    0.224E-01
RMM:   6    -0.167609288253E+00    0.37536E-03   -0.51300E-04 15416   0.130E-01    0.736E-02
RMM:   7    -0.167593718780E+00    0.15569E-04   -0.14382E-04 17206   0.563E-02    0.422E-02
RMM:   8    -0.167593821153E+00   -0.10237E-06   -0.50662E-05 18683   0.349E-02    0.429E-02
RMM:   9    -0.167583336266E+00    0.10485E-04   -0.21150E-05 22702   0.197E-02    0.143E-02
RMM:  10    -0.167579105536E+00    0.42307E-05   -0.55647E-06 19598   0.118E-02    0.117E-02
RMM:  11    -0.167567021983E+00    0.12084E-04   -0.35426E-06 16923   0.103E-02    0.631E-03
RMM:  12    -0.167565468959E+00    0.15530E-05   -0.10665E-06 20549   0.512E-03    0.609E-03
RMM:  13    -0.167563330675E+00    0.21383E-05   -0.62866E-07 18748   0.428E-03    0.335E-03
RMM:  14    -0.167563063551E+00    0.26712E-06   -0.28794E-07 26537   0.157E-03    0.109E-03
RMM:  15    -0.167562019790E+00    0.10438E-05   -0.46228E-08 21116   0.949E-04    0.811E-04
RMM:  16    -0.167561191035E+00    0.82876E-06   -0.22019E-08 19938   0.652E-04    0.286E-04
RMM:  17    -0.167560269785E+00    0.92125E-06   -0.13357E-08 24214   0.383E-04    0.719E-04
RMM:  18    -0.167559580321E+00    0.68946E-06   -0.44593E-09 20376   0.288E-04    0.145E-04
RMM:  19    -0.167559560479E+00    0.19842E-07   -0.25002E-09 25509   0.116E-04    0.897E-05
RMM:  20    -0.167559621601E+00   -0.61122E-07   -0.11056E-09 21534   0.826E-05    0.342E-05
RMM:  21    -0.167559609910E+00    0.11691E-07   -0.44547E-10 24935   0.412E-05    0.365E-05
RMM:  22    -0.167559586325E+00    0.23585E-07    0.38380E-10 20421   0.270E-05    0.157E-05
RMM:  23    -0.167559583793E+00    0.25324E-08    0.50840E-10 25062   0.159E-05    0.935E-06
 force on displaced ion      20 direction 1 :  -9.492  -0.349   0.000
 Born effective charge ion   20 direction 1 :   1.283   4.695  -0.060
 Linear response progress:
  Degree of freedom:  59/ 60
       N       E                     dE             d eps       ncg     rms          rms(c)
RMM:   1    -0.170028275188E+00   -0.17003E+00   -0.79599E-02 31713   0.949E-01
RMM:   2    -0.168208736069E+00    0.18195E-02   -0.25052E-03 15401   0.343E-01    0.253E-01
RMM:   3    -0.173924519495E+00   -0.57158E-02   -0.65620E-03 15360   0.425E-01    0.695E-01
RMM:   4    -0.167618688287E+00    0.63058E-02   -0.23811E-03 15360   0.321E-01    0.142E-01
RMM:   5    -0.168151295312E+00   -0.53261E-03   -0.12432E-03 15360   0.182E-01    0.221E-01
RMM:   6    -0.168029276409E+00    0.12202E-03   -0.51199E-04 15446   0.127E-01    0.138E-01
RMM:   7    -0.167945627806E+00    0.83649E-04   -0.16450E-04 18230   0.662E-02    0.460E-02
RMM:   8    -0.167952509536E+00   -0.68817E-05   -0.62242E-05 17173   0.387E-02    0.351E-02
RMM:   9    -0.167938129719E+00    0.14380E-04   -0.20079E-05 16466   0.243E-02    0.876E-03
RMM:  10    -0.167931228748E+00    0.69010E-05   -0.66515E-06 22302   0.121E-02    0.109E-02
RMM:  11    -0.167924620317E+00    0.66084E-05   -0.28336E-06 17271   0.872E-03    0.428E-03
RMM:  12    -0.167924893942E+00   -0.27363E-06   -0.12631E-06 21899   0.457E-03    0.408E-03
RMM:  13    -0.167924841291E+00    0.52650E-07   -0.48884E-07 19658   0.311E-03    0.159E-03
RMM:  14    -0.167924153900E+00    0.68739E-06   -0.35392E-07 29461   0.116E-03    0.176E-03
RMM:  15    -0.167922246864E+00    0.19070E-05   -0.30334E-08 19763   0.916E-04    0.661E-04
RMM:  16    -0.167921583239E+00    0.66363E-06   -0.12947E-08 21733   0.467E-04    0.434E-04
RMM:  17    -0.167920017125E+00    0.15661E-05   -0.70642E-09 20657   0.396E-04    0.563E-04
RMM:  18    -0.167919743391E+00    0.27373E-06   -0.23784E-09 22332   0.255E-04    0.220E-04
RMM:  19    -0.167919757278E+00   -0.13887E-07   -0.10364E-10 21264   0.150E-04    0.178E-04
RMM:  20    -0.167919813020E+00   -0.55742E-07    0.45084E-10 19871   0.116E-04    0.546E-05
RMM:  21    -0.167919813966E+00   -0.94663E-09    0.37173E-10 29038   0.488E-05    0.576E-05
 force on displaced ion      20 direction 2 :  -0.349  -9.387  -0.004
 Born effective charge ion   20 direction 2 :  11.115  -2.092  -0.062
 Linear response progress:
  Degree of freedom:  60/ 60
       N       E                     dE             d eps       ncg     rms          rms(c)
RMM:   1    -0.164844808141E+00   -0.16484E+00   -0.76093E-02 31385   0.940E-01
RMM:   2    -0.164188594883E+00    0.65621E-03   -0.22977E-03 15409   0.312E-01    0.212E-01
RMM:   3    -0.163916164190E+00    0.27243E-03   -0.32204E-04 25123   0.584E-02    0.124E-01
RMM:   4    -0.164228286174E+00   -0.31212E-03   -0.42310E-04 22799   0.656E-02    0.309E-02
RMM:   5    -0.164227843997E+00    0.44218E-06   -0.36174E-05 15724   0.302E-02    0.296E-02
RMM:   6    -0.164191686994E+00    0.36157E-04   -0.12038E-05 18334   0.181E-02    0.282E-02
RMM:   7    -0.164181379326E+00    0.10308E-04   -0.66478E-06 19120   0.137E-02    0.967E-03
RMM:   8    -0.164180121504E+00    0.12578E-05   -0.23815E-06 19767   0.861E-03    0.103E-02
RMM:   9    -0.164177030430E+00    0.30911E-05   -0.12032E-06 18202   0.525E-03    0.388E-03
RMM:  10    -0.164176169693E+00    0.86074E-06   -0.30470E-07 23069   0.279E-03    0.189E-03
RMM:  11    -0.164174311925E+00    0.18578E-05   -0.16084E-07 22186   0.154E-03    0.240E-03
RMM:  12    -0.164172779965E+00    0.15320E-05   -0.60350E-08 21584   0.110E-03    0.627E-04
RMM:  13    -0.164171694816E+00    0.10851E-05   -0.28340E-08 23160   0.561E-04    0.611E-04
RMM:  14    -0.164169301981E+00    0.23928E-05   -0.12933E-09 19491   0.468E-04    0.313E-04
RMM:  15    -0.164169046366E+00    0.25561E-06   -0.10643E-08 23554   0.230E-04    0.154E-04
RMM:  16    -0.164168878527E+00    0.16784E-06    0.26553E-09 20287   0.182E-04    0.171E-04
RMM:  17    -0.164168848805E+00    0.29722E-07   -0.69874E-09 21398   0.113E-04    0.896E-05
RMM:  18    -0.164168860867E+00   -0.12062E-07    0.19707E-09 24654   0.654E-05    0.785E-05
RMM:  19    -0.164168910719E+00   -0.49852E-07   -0.17997E-09 20818   0.490E-05    0.158E-05
RMM:  20    -0.164168913641E+00   -0.29224E-08    0.87113E-11 27913   0.220E-05    0.138E-05
 force on displaced ion      20 direction 3 :   0.000  -0.004  -9.412
 Born effective charge ion   20 direction 3 :   0.105   0.086  -5.207
 Born effective charges drift removed
 Linear response finished
