phonopy:
  version: 2.18.0
  frequency_unit_conversion_factor: 15.633302
  symmetry_tolerance: 1.00000e-05
  configuration:
    npoints: "501"
    dim: "1 1 1"
    band: "0.000000 0.000000 0.000000 0.500000 0.000000 0.000000, 0.000000 0.500000 0.000000 0.000000 0.000000 0.000000 0.000000 0.000000 0.500000, -0.500000 -0.500000 0.500000 0.000000 0.000000 0.000000 0.000000 -0.500000 0.500000, -0.500000 0.000000 0.500000 0.000000 0.000000 0.000000 0.500000 -0.500000 0.000000"
    band_labels: "$\\Gamma$ X Y $\\Gamma$ Z R$_2$ $\\Gamma$ T$_2$ U$_2$ $\\Gamma$ V$_2$"
    mp: "20 20 20"
    pdos: "1 2 3 4 5 6 7 8 9 10 11 12 13 14 15 16 17, 18 19 20"
    read_force_constants: ".true."

physical_unit:
  atomic_mass: "AMU"
  length: "angstrom"
  force_constants: "eV/angstrom^2"

space_group:
  type: "P1"
  number: 1
  Hall_symbol: "P 1"

supercell_matrix:
- [   1,   0,   0 ]
- [   0,   1,   0 ]
- [   0,   0,   1 ]

primitive_cell:
  lattice:
  - [     6.299831800566637,    -0.677060313095501,     0.005253580097810 ] # a
  - [    -0.938150513238830,     9.635935375459686,     0.017743452719722 ] # b
  - [    -0.004329399028535,    -0.008124102370800,     4.183125950765200 ] # c
  points:
  - symbol: V  # 1
    coordinates: [  0.097408233939884,  0.224520095851183,  0.549914223628633 ]
    mass: 50.941500
  - symbol: V  # 2
    coordinates: [  0.108723756915200,  0.725534393772240,  0.550303100439528 ]
    mass: 50.941500
  - symbol: V  # 3
    coordinates: [  0.494310974933946,  0.324441991373681,  0.549930973613948 ]
    mass: 50.941500
  - symbol: V  # 4
    coordinates: [  0.400102623273292,  0.675115349142773,  0.050272544959423 ]
    mass: 50.941500
  - symbol: V  # 5
    coordinates: [  0.802084690211168,  0.774675611832258,  0.050320816497681 ]
    mass: 50.941500
  - symbol: V  # 6
    coordinates: [  0.792841231593133,  0.273548045628395,  0.049910028389693 ]
    mass: 50.941500
  - symbol: V  # 7
    coordinates: [  0.998121994880797,  0.575552115931273,  0.050191221030512 ]
    mass: 50.941500
  - symbol: V  # 8
    coordinates: [  0.205913554373746,  0.377445203098505,  0.049949794934820 ]
    mass: 50.941500
  - symbol: V  # 9
    coordinates: [  0.702877136698631,  0.125702953622821,  0.549984229954108 ]
    mass: 50.941500
  - symbol: V  # 10
    coordinates: [  0.892926210708475,  0.924246058900280,  0.550220633615220 ]
    mass: 50.941500
  - symbol: V  # 11
    coordinates: [  0.907317716332108,  0.425976726878286,  0.549999069262282 ]
    mass: 50.941500
  - symbol: V  # 12
    coordinates: [  0.691480522108655,  0.624692796059401,  0.550238841507039 ]
    mass: 50.941500
  - symbol: V  # 13
    coordinates: [  0.199773770471300,  0.874169074737448,  0.050257287809519 ]
    mass: 50.941500
  - symbol: V  # 14
    coordinates: [  0.007437802696851,  0.076674611518210,  0.050049008516099 ]
    mass: 50.941500
  - symbol: V  # 15
    coordinates: [  0.305953657709363,  0.025774026019241,  0.550108445802338 ]
    mass: 50.941500
  - symbol: V  # 16
    coordinates: [  0.600456448357505,  0.476055394617440,  0.050066819598364 ]
    mass: 50.941500
  - symbol: V  # 17
    coordinates: [  0.594347425692175,  0.972782861389827,  0.050155871447865 ]
    mass: 50.941500
  - symbol: Fe # 18
    coordinates: [  0.300838852435358,  0.525261304909395,  0.550134064725218 ]
    mass: 55.845000
  - symbol: Fe # 19
    coordinates: [  0.499362800377386,  0.824966160003609,  0.550269657707184 ]
    mass: 55.845000
  - symbol: Fe # 20
    coordinates: [  0.400120596291013,  0.175106224713739,  0.049964366560517 ]
    mass: 55.845000
  reciprocal_lattice: # without 2pi
  - [     0.160412672325319,     0.015617347048975,     0.000196352537213 ] # a*
  - [     0.011271041660393,     0.104875144258109,     0.000215344518794 ] # b*
  - [    -0.000249270050637,    -0.000464459872861,     0.239054515513215 ] # c*

unit_cell:
  lattice:
  - [     6.299831800566637,    -0.677060313095501,     0.005253580097810 ] # a
  - [    -0.938150513238830,     9.635935375459686,     0.017743452719722 ] # b
  - [    -0.004329399028535,    -0.008124102370800,     4.183125950765200 ] # c
  points:
  - symbol: V  # 1
    coordinates: [  0.097408233939884,  0.224520095851183,  0.549914223628633 ]
    mass: 50.941500
    reduced_to: 1
  - symbol: V  # 2
    coordinates: [  0.108723756915200,  0.725534393772240,  0.550303100439528 ]
    mass: 50.941500
    reduced_to: 2
  - symbol: V  # 3
    coordinates: [  0.494310974933946,  0.324441991373681,  0.549930973613948 ]
    mass: 50.941500
    reduced_to: 3
  - symbol: V  # 4
    coordinates: [  0.400102623273292,  0.675115349142773,  0.050272544959423 ]
    mass: 50.941500
    reduced_to: 4
  - symbol: V  # 5
    coordinates: [  0.802084690211168,  0.774675611832258,  0.050320816497681 ]
    mass: 50.941500
    reduced_to: 5
  - symbol: V  # 6
    coordinates: [  0.792841231593133,  0.273548045628395,  0.049910028389693 ]
    mass: 50.941500
    reduced_to: 6
  - symbol: V  # 7
    coordinates: [  0.998121994880797,  0.575552115931273,  0.050191221030512 ]
    mass: 50.941500
    reduced_to: 7
  - symbol: V  # 8
    coordinates: [  0.205913554373746,  0.377445203098505,  0.049949794934820 ]
    mass: 50.941500
    reduced_to: 8
  - symbol: V  # 9
    coordinates: [  0.702877136698631,  0.125702953622821,  0.549984229954108 ]
    mass: 50.941500
    reduced_to: 9
  - symbol: V  # 10
    coordinates: [  0.892926210708475,  0.924246058900280,  0.550220633615220 ]
    mass: 50.941500
    reduced_to: 10
  - symbol: V  # 11
    coordinates: [  0.907317716332108,  0.425976726878286,  0.549999069262282 ]
    mass: 50.941500
    reduced_to: 11
  - symbol: V  # 12
    coordinates: [  0.691480522108655,  0.624692796059401,  0.550238841507039 ]
    mass: 50.941500
    reduced_to: 12
  - symbol: V  # 13
    coordinates: [  0.199773770471300,  0.874169074737448,  0.050257287809519 ]
    mass: 50.941500
    reduced_to: 13
  - symbol: V  # 14
    coordinates: [  0.007437802696851,  0.076674611518210,  0.050049008516099 ]
    mass: 50.941500
    reduced_to: 14
  - symbol: V  # 15
    coordinates: [  0.305953657709363,  0.025774026019241,  0.550108445802338 ]
    mass: 50.941500
    reduced_to: 15
  - symbol: V  # 16
    coordinates: [  0.600456448357505,  0.476055394617440,  0.050066819598364 ]
    mass: 50.941500
    reduced_to: 16
  - symbol: V  # 17
    coordinates: [  0.594347425692175,  0.972782861389827,  0.050155871447865 ]
    mass: 50.941500
    reduced_to: 17
  - symbol: Fe # 18
    coordinates: [  0.300838852435358,  0.525261304909395,  0.550134064725218 ]
    mass: 55.845000
    reduced_to: 18
  - symbol: Fe # 19
    coordinates: [  0.499362800377386,  0.824966160003609,  0.550269657707184 ]
    mass: 55.845000
    reduced_to: 19
  - symbol: Fe # 20
    coordinates: [  0.400120596291013,  0.175106224713739,  0.049964366560517 ]
    mass: 55.845000
    reduced_to: 20

supercell:
  lattice:
  - [     6.299831800566637,    -0.677060313095501,     0.005253580097810 ] # a
  - [    -0.938150513238830,     9.635935375459686,     0.017743452719722 ] # b
  - [    -0.004329399028535,    -0.008124102370800,     4.183125950765200 ] # c
  points:
  - symbol: V  # 1
    coordinates: [  0.097408233939884,  0.224520095851183,  0.549914223628633 ]
    mass: 50.941500
    reduced_to: 1
  - symbol: V  # 2
    coordinates: [  0.108723756915200,  0.725534393772240,  0.550303100439528 ]
    mass: 50.941500
    reduced_to: 2
  - symbol: V  # 3
    coordinates: [  0.494310974933946,  0.324441991373681,  0.549930973613948 ]
    mass: 50.941500
    reduced_to: 3
  - symbol: V  # 4
    coordinates: [  0.400102623273292,  0.675115349142773,  0.050272544959423 ]
    mass: 50.941500
    reduced_to: 4
  - symbol: V  # 5
    coordinates: [  0.802084690211168,  0.774675611832258,  0.050320816497681 ]
    mass: 50.941500
    reduced_to: 5
  - symbol: V  # 6
    coordinates: [  0.792841231593133,  0.273548045628395,  0.049910028389693 ]
    mass: 50.941500
    reduced_to: 6
  - symbol: V  # 7
    coordinates: [  0.998121994880797,  0.575552115931273,  0.050191221030512 ]
    mass: 50.941500
    reduced_to: 7
  - symbol: V  # 8
    coordinates: [  0.205913554373746,  0.377445203098505,  0.049949794934820 ]
    mass: 50.941500
    reduced_to: 8
  - symbol: V  # 9
    coordinates: [  0.702877136698631,  0.125702953622821,  0.549984229954108 ]
    mass: 50.941500
    reduced_to: 9
  - symbol: V  # 10
    coordinates: [  0.892926210708475,  0.924246058900280,  0.550220633615220 ]
    mass: 50.941500
    reduced_to: 10
  - symbol: V  # 11
    coordinates: [  0.907317716332108,  0.425976726878286,  0.549999069262282 ]
    mass: 50.941500
    reduced_to: 11
  - symbol: V  # 12
    coordinates: [  0.691480522108655,  0.624692796059401,  0.550238841507039 ]
    mass: 50.941500
    reduced_to: 12
  - symbol: V  # 13
    coordinates: [  0.199773770471300,  0.874169074737448,  0.050257287809519 ]
    mass: 50.941500
    reduced_to: 13
  - symbol: V  # 14
    coordinates: [  0.007437802696851,  0.076674611518210,  0.050049008516099 ]
    mass: 50.941500
    reduced_to: 14
  - symbol: V  # 15
    coordinates: [  0.305953657709363,  0.025774026019241,  0.550108445802338 ]
    mass: 50.941500
    reduced_to: 15
  - symbol: V  # 16
    coordinates: [  0.600456448357505,  0.476055394617440,  0.050066819598364 ]
    mass: 50.941500
    reduced_to: 16
  - symbol: V  # 17
    coordinates: [  0.594347425692175,  0.972782861389827,  0.050155871447865 ]
    mass: 50.941500
    reduced_to: 17
  - symbol: Fe # 18
    coordinates: [  0.300838852435358,  0.525261304909395,  0.550134064725218 ]
    mass: 55.845000
    reduced_to: 18
  - symbol: Fe # 19
    coordinates: [  0.499362800377386,  0.824966160003609,  0.550269657707184 ]
    mass: 55.845000
    reduced_to: 19
  - symbol: Fe # 20
    coordinates: [  0.400120596291013,  0.175106224713739,  0.049964366560517 ]
    mass: 55.845000
    reduced_to: 20
