<?xml version="1.0" encoding="ISO-8859-1"?>
<modeling>
 <generator>
  <i name="program" type="string">vasp </i>
  <i name="version" type="string">5.4.4.18Apr17-6-g9f103f2a35  </i>
  <i name="subversion" type="string">(build Feb  7 2022 17:20:47) complex            parallel </i>
  <i name="platform" type="string">Dell AMD gcc93 </i>
  <i name="date" type="string">2024 08 31 </i>
  <i name="time" type="string">23:35:01 </i>
 </generator>
 <incar>
  <i type="int" name="ISTART">     0</i>
  <i type="string" name="PREC">accurate</i>
  <i type="logical" name="ADDGRID"> T  </i>
  <i type="int" name="ICHARG">     2</i>
  <i type="int" name="IBRION">     8</i>
  <i name="EDIFF">      0.00000001</i>
  <i type="int" name="NSW">     1</i>
  <i type="logical" name="LREAL"> F  </i>
  <i type="int" name="ISMEAR">     0</i>
  <i name="SIGMA">      0.05000000</i>
  <i type="int" name="NWRITE">     3</i>
  <i type="logical" name="LWAVE"> F  </i>
  <i type="logical" name="LCHARG"> F  </i>
  <i type="logical" name="LASPH"> T  </i>
  <v type="int" name="KPOINT_BSE">    -1     0     0     0</v>
  <i type="logical" name="LEPSILON"> T  </i>
  <i type="logical" name="LASPH"> T  </i>
 </incar>
 <structure name="primitive_cell" >
  <crystal>
   <varray name="basis" >
    <v>       6.29983180      -0.67706031       0.00525358 </v>
    <v>      -0.93815051       9.63593538       0.01774345 </v>
    <v>      -0.00432940      -0.00812410       4.18312595 </v>
   </varray>
   <i name="volume">    251.27987019 </i>
   <varray name="rec_basis" >
    <v>       0.16041267       0.01561735       0.00019635 </v>
    <v>       0.01127104       0.10487514       0.00021534 </v>
    <v>      -0.00024927      -0.00046446       0.23905452 </v>
   </varray>
  </crystal>
  <varray name="positions" >
   <v>       0.09740823       0.22452010      -0.45008578 </v>
   <v>      -0.29712286       0.12570295      -0.45001577 </v>
   <v>      -0.09268228       0.42597673      -0.45000093 </v>
   <v>       0.49431097       0.32444199      -0.45006903 </v>
   <v>       0.00743780       0.07667461       0.05004901 </v>
   <v>       0.30595366       0.02577403      -0.44989155 </v>
   <v>       0.20591355       0.37744520       0.04994979 </v>
   <v>      -0.10707379      -0.07575394      -0.44977937 </v>
   <v>       0.30083885      -0.47473870      -0.44986594 </v>
   <v>       0.40012060       0.17510622       0.04996437 </v>
   <v>      -0.20715877       0.27354805       0.04991003 </v>
   <v>      -0.00187801      -0.42444788       0.05019122 </v>
   <v>       0.19977377      -0.12583093       0.05025729 </v>
   <v>      -0.39954355       0.47605539       0.05006682 </v>
   <v>      -0.40565257      -0.02721714       0.05015587 </v>
   <v>      -0.30851948      -0.37530720      -0.44976116 </v>
   <v>       0.49936280      -0.17503384      -0.44973034 </v>
   <v>       0.10872376      -0.27446561      -0.44969690 </v>
   <v>      -0.19791531      -0.22532439       0.05032082 </v>
   <v>       0.40010262      -0.32488465       0.05027254 </v>
  </varray>
 </structure>
 <varray name="primitive_index" >
  <v type="int" >        1 </v>
  <v type="int" >        9 </v>
  <v type="int" >       11 </v>
  <v type="int" >        3 </v>
  <v type="int" >       14 </v>
  <v type="int" >       15 </v>
  <v type="int" >        8 </v>
  <v type="int" >       10 </v>
  <v type="int" >       18 </v>
  <v type="int" >       20 </v>
  <v type="int" >        6 </v>
  <v type="int" >        7 </v>
  <v type="int" >       13 </v>
  <v type="int" >       16 </v>
  <v type="int" >       17 </v>
  <v type="int" >       12 </v>
  <v type="int" >       19 </v>
  <v type="int" >        2 </v>
  <v type="int" >        5 </v>
  <v type="int" >        4 </v>
 </varray>
 <kpoints>
  <generation param="Monkhorst-Pack">
   <v type="int" name="divisions">       5        4        8 </v>
   <v name="usershift">      0.00000000       0.00000000       0.00000000 </v>
   <v name="genvec1">      0.20000000       0.00000000      -0.00000000 </v>
   <v name="genvec2">     -0.00000000       0.25000000       0.00000000 </v>
   <v name="genvec3">     -0.00000000       0.00000000       0.12500000 </v>
   <v name="shift">      0.00000000       0.50000000       0.50000000 </v>
  </generation>
  <varray name="kpointlist" >
   <v>       0.00000000       0.12500000       0.06250000 </v>
   <v>       0.20000000       0.12500000       0.06250000 </v>
   <v>       0.40000000       0.12500000       0.06250000 </v>
   <v>      -0.40000000       0.12500000       0.06250000 </v>
   <v>      -0.20000000       0.12500000       0.06250000 </v>
   <v>       0.00000000       0.37500000       0.06250000 </v>
   <v>       0.20000000       0.37500000       0.06250000 </v>
   <v>       0.40000000       0.37500000       0.06250000 </v>
   <v>      -0.40000000       0.37500000       0.06250000 </v>
   <v>      -0.20000000       0.37500000       0.06250000 </v>
   <v>       0.00000000      -0.37500000       0.06250000 </v>
   <v>       0.20000000      -0.37500000       0.06250000 </v>
   <v>       0.40000000      -0.37500000       0.06250000 </v>
   <v>      -0.40000000      -0.37500000       0.06250000 </v>
   <v>      -0.20000000      -0.37500000       0.06250000 </v>
   <v>       0.00000000      -0.12500000       0.06250000 </v>
   <v>       0.20000000      -0.12500000       0.06250000 </v>
   <v>       0.40000000      -0.12500000       0.06250000 </v>
   <v>      -0.40000000      -0.12500000       0.06250000 </v>
   <v>      -0.20000000      -0.12500000       0.06250000 </v>
   <v>       0.00000000       0.12500000       0.18750000 </v>
   <v>       0.20000000       0.12500000       0.18750000 </v>
   <v>       0.40000000       0.12500000       0.18750000 </v>
   <v>      -0.40000000       0.12500000       0.18750000 </v>
   <v>      -0.20000000       0.12500000       0.18750000 </v>
   <v>       0.00000000       0.37500000       0.18750000 </v>
   <v>       0.20000000       0.37500000       0.18750000 </v>
   <v>       0.40000000       0.37500000       0.18750000 </v>
   <v>      -0.40000000       0.37500000       0.18750000 </v>
   <v>      -0.20000000       0.37500000       0.18750000 </v>
   <v>       0.00000000      -0.37500000       0.18750000 </v>
   <v>       0.20000000      -0.37500000       0.18750000 </v>
   <v>       0.40000000      -0.37500000       0.18750000 </v>
   <v>      -0.40000000      -0.37500000       0.18750000 </v>
   <v>      -0.20000000      -0.37500000       0.18750000 </v>
   <v>       0.00000000      -0.12500000       0.18750000 </v>
   <v>       0.20000000      -0.12500000       0.18750000 </v>
   <v>       0.40000000      -0.12500000       0.18750000 </v>
   <v>      -0.40000000      -0.12500000       0.18750000 </v>
   <v>      -0.20000000      -0.12500000       0.18750000 </v>
   <v>       0.00000000       0.12500000       0.31250000 </v>
   <v>       0.20000000       0.12500000       0.31250000 </v>
   <v>       0.40000000       0.12500000       0.31250000 </v>
   <v>      -0.40000000       0.12500000       0.31250000 </v>
   <v>      -0.20000000       0.12500000       0.31250000 </v>
   <v>       0.00000000       0.37500000       0.31250000 </v>
   <v>       0.20000000       0.37500000       0.31250000 </v>
   <v>       0.40000000       0.37500000       0.31250000 </v>
   <v>      -0.40000000       0.37500000       0.31250000 </v>
   <v>      -0.20000000       0.37500000       0.31250000 </v>
   <v>       0.00000000      -0.37500000       0.31250000 </v>
   <v>       0.20000000      -0.37500000       0.31250000 </v>
   <v>       0.40000000      -0.37500000       0.31250000 </v>
   <v>      -0.40000000      -0.37500000       0.31250000 </v>
   <v>      -0.20000000      -0.37500000       0.31250000 </v>
   <v>       0.00000000      -0.12500000       0.31250000 </v>
   <v>       0.20000000      -0.12500000       0.31250000 </v>
   <v>       0.40000000      -0.12500000       0.31250000 </v>
   <v>      -0.40000000      -0.12500000       0.31250000 </v>
   <v>      -0.20000000      -0.12500000       0.31250000 </v>
   <v>       0.00000000       0.12500000       0.43750000 </v>
   <v>       0.20000000       0.12500000       0.43750000 </v>
   <v>       0.40000000       0.12500000       0.43750000 </v>
   <v>      -0.40000000       0.12500000       0.43750000 </v>
   <v>      -0.20000000       0.12500000       0.43750000 </v>
   <v>       0.00000000       0.37500000       0.43750000 </v>
   <v>       0.20000000       0.37500000       0.43750000 </v>
   <v>       0.40000000       0.37500000       0.43750000 </v>
   <v>      -0.40000000       0.37500000       0.43750000 </v>
   <v>      -0.20000000       0.37500000       0.43750000 </v>
   <v>       0.00000000      -0.37500000       0.43750000 </v>
   <v>       0.20000000      -0.37500000       0.43750000 </v>
   <v>       0.40000000      -0.37500000       0.43750000 </v>
   <v>      -0.40000000      -0.37500000       0.43750000 </v>
   <v>      -0.20000000      -0.37500000       0.43750000 </v>
   <v>       0.00000000      -0.12500000       0.43750000 </v>
   <v>       0.20000000      -0.12500000       0.43750000 </v>
   <v>       0.40000000      -0.12500000       0.43750000 </v>
   <v>      -0.40000000      -0.12500000       0.43750000 </v>
   <v>      -0.20000000      -0.12500000       0.43750000 </v>
  </varray>
  <varray name="weights" >
   <v>       0.01250000 </v>
   <v>       0.01250000 </v>
   <v>       0.01250000 </v>
   <v>       0.01250000 </v>
   <v>       0.01250000 </v>
   <v>       0.01250000 </v>
   <v>       0.01250000 </v>
   <v>       0.01250000 </v>
   <v>       0.01250000 </v>
   <v>       0.01250000 </v>
   <v>       0.01250000 </v>
   <v>       0.01250000 </v>
   <v>       0.01250000 </v>
   <v>       0.01250000 </v>
   <v>       0.01250000 </v>
   <v>       0.01250000 </v>
   <v>       0.01250000 </v>
   <v>       0.01250000 </v>
   <v>       0.01250000 </v>
   <v>       0.01250000 </v>
   <v>       0.01250000 </v>
   <v>       0.01250000 </v>
   <v>       0.01250000 </v>
   <v>       0.01250000 </v>
   <v>       0.01250000 </v>
   <v>       0.01250000 </v>
   <v>       0.01250000 </v>
   <v>       0.01250000 </v>
   <v>       0.01250000 </v>
   <v>       0.01250000 </v>
   <v>       0.01250000 </v>
   <v>       0.01250000 </v>
   <v>       0.01250000 </v>
   <v>       0.01250000 </v>
   <v>       0.01250000 </v>
   <v>       0.01250000 </v>
   <v>       0.01250000 </v>
   <v>       0.01250000 </v>
   <v>       0.01250000 </v>
   <v>       0.01250000 </v>
   <v>       0.01250000 </v>
   <v>       0.01250000 </v>
   <v>       0.01250000 </v>
   <v>       0.01250000 </v>
   <v>       0.01250000 </v>
   <v>       0.01250000 </v>
   <v>       0.01250000 </v>
   <v>       0.01250000 </v>
   <v>       0.01250000 </v>
   <v>       0.01250000 </v>
   <v>       0.01250000 </v>
   <v>       0.01250000 </v>
   <v>       0.01250000 </v>
   <v>       0.01250000 </v>
   <v>       0.01250000 </v>
   <v>       0.01250000 </v>
   <v>       0.01250000 </v>
   <v>       0.01250000 </v>
   <v>       0.01250000 </v>
   <v>       0.01250000 </v>
   <v>       0.01250000 </v>
   <v>       0.01250000 </v>
   <v>       0.01250000 </v>
   <v>       0.01250000 </v>
   <v>       0.01250000 </v>
   <v>       0.01250000 </v>
   <v>       0.01250000 </v>
   <v>       0.01250000 </v>
   <v>       0.01250000 </v>
   <v>       0.01250000 </v>
   <v>       0.01250000 </v>
   <v>       0.01250000 </v>
   <v>       0.01250000 </v>
   <v>       0.01250000 </v>
   <v>       0.01250000 </v>
   <v>       0.01250000 </v>
   <v>       0.01250000 </v>
   <v>       0.01250000 </v>
   <v>       0.01250000 </v>
   <v>       0.01250000 </v>
  </varray>
 </kpoints>
 <parameters>
  <separator name="general" >
   <i type="string" name="SYSTEM">unknown system</i>
   <i type="logical" name="LCOMPAT"> F  </i>
  </separator>
  <separator name="electronic" >
   <i type="string" name="PREC">accura</i>
   <i name="ENMAX">    267.88200000</i>
   <i name="ENAUG">    511.36800000</i>
   <i name="EDIFF">      0.00000001</i>
   <i type="int" name="IALGO">    38</i>
   <i type="int" name="IWAVPR">    11</i>
   <i type="int" name="NBANDS">    96</i>
   <i name="NELECT">    109.00000000</i>
   <i type="int" name="TURBO">     0</i>
   <i type="int" name="IRESTART">     0</i>
   <i type="int" name="NREBOOT">     0</i>
   <i type="int" name="NMIN">     0</i>
   <i name="EREF">      0.00000000</i>
   <separator name="electronic smearing" >
    <i type="int" name="ISMEAR">     0</i>
    <i name="SIGMA">      0.05000000</i>
    <i name="KSPACING">      0.50000000</i>
    <i type="logical" name="KGAMMA"> T  </i>
   </separator>
   <separator name="electronic projectors" >
    <i type="logical" name="LREAL"> F  </i>
    <v name="ROPT">      0.00000000      0.00000000</v>
    <i type="int" name="LMAXPAW">  -100</i>
    <i type="int" name="LMAXMIX">     2</i>
    <i type="logical" name="NLSPLINE"> F  </i>
   </separator>
   <separator name="electronic startup" >
    <i type="int" name="ISTART">     0</i>
    <i type="int" name="ICHARG">     2</i>
    <i type="int" name="INIWAV">     1</i>
   </separator>
   <separator name="electronic spin" >
    <i type="int" name="ISPIN">     1</i>
    <i type="logical" name="LNONCOLLINEAR"> F  </i>
    <v name="MAGMOM">      1.00000000      1.00000000      1.00000000      1.00000000      1.00000000      1.00000000      1.00000000      1.00000000      1.00000000      1.00000000      1.00000000      1.00000000      1.00000000      1.00000000      1.00000000      1.00000000      1.00000000      1.00000000      1.00000000      1.00000000
</v>
    <i name="NUPDOWN">     -1.00000000</i>
    <i type="logical" name="LSORBIT"> F  </i>
    <v name="SAXIS">      0.00000000      0.00000000      1.00000000</v>
    <i type="logical" name="LSPIRAL"> F  </i>
    <v name="QSPIRAL">      0.00000000      0.00000000      0.00000000</v>
    <i type="logical" name="LZEROZ"> F  </i>
   </separator>
   <separator name="electronic exchange-correlation" >
    <i type="logical" name="LASPH"> T  </i>
    <i type="logical" name="LMETAGGA"> F  </i>
   </separator>
   <separator name="electronic convergence" >
    <i type="int" name="NELM">    60</i>
    <i type="int" name="NELMDL">    -5</i>
    <i type="int" name="NELMIN">     2</i>
    <i name="ENINI">    267.88200000</i>
    <separator name="electronic convergence detail" >
     <i type="logical" name="LDIAG"> T  </i>
     <i type="logical" name="LSUBROT"> F  </i>
     <i name="WEIMIN">      0.00100000</i>
     <i name="EBREAK">      0.00000000</i>
     <i name="DEPER">      0.30000000</i>
     <i type="int" name="NRMM">     4</i>
     <i name="TIME">      0.40000000</i>
    </separator>
   </separator>
   <separator name="electronic mixer" >
    <i name="AMIX">      0.40000000</i>
    <i name="BMIX">      1.00000000</i>
    <i name="AMIN">      0.10000000</i>
    <i name="AMIX_MAG">      1.60000000</i>
    <i name="BMIX_MAG">      1.00000000</i>
    <separator name="electronic mixer details" >
     <i type="int" name="IMIX">     4</i>
     <i type="logical" name="MIXFIRST"> F  </i>
     <i type="int" name="MAXMIX">   -45</i>
     <i name="WC">    100.00000000</i>
     <i type="int" name="INIMIX">     1</i>
     <i type="int" name="MIXPRE">     1</i>
     <i type="int" name="MREMOVE">     5</i>
    </separator>
   </separator>
   <separator name="electronic dipolcorrection" >
    <i type="logical" name="LDIPOL"> F  </i>
    <i type="logical" name="LMONO"> F  </i>
    <i type="int" name="IDIPOL">     0</i>
    <i name="EPSILON">      1.00000000</i>
    <v name="DIPOL">   -100.00000000   -100.00000000   -100.00000000</v>
    <i name="EFIELD">      0.00000000</i>
   </separator>
  </separator>
  <separator name="grids" >
   <i type="int" name="NGX">    36</i>
   <i type="int" name="NGY">    54</i>
   <i type="int" name="NGZ">    24</i>
   <i type="int" name="NGXF">    72</i>
   <i type="int" name="NGYF">   108</i>
   <i type="int" name="NGZF">    48</i>
   <i type="logical" name="ADDGRID"> T  </i>
  </separator>
  <separator name="ionic" >
   <i type="int" name="NSW">     1</i>
   <i type="int" name="IBRION">     8</i>
   <i type="int" name="MDALGO">     0</i>
   <i type="int" name="ISIF">     2</i>
   <i name="PSTRESS">      0.00000000</i>
   <i name="EDIFFG">      0.00000010</i>
   <i type="int" name="NFREE">     0</i>
   <i name="POTIM">      0.50000000</i>
   <i name="SMASS">     -3.00000000</i>
   <i name="SCALEE">      1.00000000</i>
  </separator>
  <separator name="ionic md" >
   <i name="TEBEG">      0.00010000</i>
   <i name="TEEND">      0.00010000</i>
   <i type="int" name="NBLOCK">     1</i>
   <i type="int" name="KBLOCK">     1</i>
   <i type="int" name="NPACO">   256</i>
   <i name="APACO">     16.00000000</i>
  </separator>
  <separator name="symmetry" >
   <i type="int" name="ISYM">     2</i>
   <i name="SYMPREC">      0.00001000</i>
  </separator>
  <separator name="dos" >
   <i type="int" name="LORBIT">     0</i>
   <v name="RWIGS">     -1.00000000     -1.00000000</v>
   <i type="int" name="NEDOS">   301</i>
   <i name="EMIN">     10.00000000</i>
   <i name="EMAX">    -10.00000000</i>
   <i name="EFERMI">      0.00000000</i>
  </separator>
  <separator name="writing" >
   <i type="int" name="NWRITE">     3</i>
   <i type="logical" name="LWAVE"> F  </i>
   <i type="logical" name="LDOWNSAMPLE"> F  </i>
   <i type="logical" name="LCHARG"> F  </i>
   <i type="logical" name="LPARD"> F  </i>
   <i type="logical" name="LVTOT"> F  </i>
   <i type="logical" name="LVHAR"> F  </i>
   <i type="logical" name="LELF"> F  </i>
   <i type="logical" name="LOPTICS"> F  </i>
   <v name="STM">      0.00000000      0.00000000      0.00000000      0.00000000      0.00000000      0.00000000      0.00000000</v>
  </separator>
  <separator name="performance" >
   <i type="int" name="NPAR">    48</i>
   <i type="int" name="NSIM">     4</i>
   <i type="int" name="NBLK">    -1</i>
   <i type="logical" name="LPLANE"> T  </i>
   <i type="logical" name="LSCALAPACK"> T  </i>
   <i type="logical" name="LSCAAWARE"> T  </i>
   <i type="logical" name="LSCALU"> F  </i>
   <i type="logical" name="LASYNC"> F  </i>
   <i type="logical" name="LORBITALREAL"> F  </i>
  </separator>
  <separator name="miscellaneous" >
   <i type="int" name="IDIOT">     3</i>
   <i type="int" name="ISPECIAL">     0</i>
   <i type="logical" name="LMUSIC"> F  </i>
   <v name="POMASS">     50.94100000     55.84700000</v>
   <v name="DARWINR">      0.00000000      0.00000000</v>
   <v name="DARWINV">      1.00000000      1.00000000</v>
   <i type="logical" name="LCORR"> T  </i>
  </separator>
  <i type="logical" name="GGA_COMPAT"> T  </i>
  <i type="logical" name="LBERRY"> F  </i>
  <i type="int" name="ICORELEVEL">     0</i>
  <i type="logical" name="LDAU"> F  </i>
  <i type="int" name="I_CONSTRAINED_M">     0</i>
  <separator name="electronic exchange-correlation" >
   <i type="string" name="GGA">--</i>
   <i type="int" name="VOSKOWN">     0</i>
   <i type="logical" name="LHFCALC"> F  </i>
   <i type="string" name="PRECFOCK"></i>
   <i type="logical" name="LSYMGRAD"> F  </i>
   <i type="logical" name="LHFONE"> F  </i>
   <i type="logical" name="LRHFCALC"> F  </i>
   <i type="logical" name="LTHOMAS"> F  </i>
   <i type="logical" name="LMODELHF"> F  </i>
   <i name="ENCUT4O">     -1.00000000</i>
   <i type="int" name="EXXOEP">     0</i>
   <i type="int" name="FOURORBIT">     0</i>
   <i name="AEXX">      0.00000000</i>
   <i name="HFALPHA">      0.00000000</i>
   <i name="MCALPHA">      0.00000000</i>
   <i name="ALDAX">      1.00000000</i>
   <i name="AGGAX">      1.00000000</i>
   <i name="ALDAC">      1.00000000</i>
   <i name="AGGAC">      1.00000000</i>
   <i type="int" name="NKREDX">     1</i>
   <i type="int" name="NKREDY">     1</i>
   <i type="int" name="NKREDZ">     1</i>
   <i type="logical" name="SHIFTRED"> F  </i>
   <i type="logical" name="ODDONLY"> F  </i>
   <i type="logical" name="EVENONLY"> F  </i>
   <i type="int" name="LMAXFOCK">     0</i>
   <i type="int" name="NMAXFOCKAE">     0</i>
   <i type="logical" name="LFOCKAEDFT"> F  </i>
   <i name="HFSCREEN">      0.00000000</i>
   <i name="HFSCREENC">      0.00000000</i>
   <i type="int" name="NBANDSGWLOW">     0</i>
  </separator>
  <separator name="vdW DFT" >
   <i type="logical" name="LUSE_VDW"> F  </i>
   <i name="Zab_VDW">     -0.84910000</i>
   <i name="PARAM1">      0.12340000</i>
   <i name="PARAM2">      1.00000000</i>
   <i name="PARAM3">      0.00000000</i>
  </separator>
  <separator name="model GW" >
   <i type="int" name="MODEL_GW">     0</i>
   <i name="MODEL_EPS0">      7.53839611</i>
   <i name="MODEL_ALPHA">      1.00000000</i>
  </separator>
  <separator name="linear response parameters" >
   <i type="logical" name="LEPSILON"> T  </i>
   <i type="logical" name="LRPA"> F  </i>
   <i type="logical" name="LNABLA"> F  </i>
   <i type="logical" name="LVEL"> F  </i>
   <i type="int" name="KINTER">     0</i>
   <i name="CSHIFT">      0.10000000</i>
   <i name="OMEGAMAX">     -1.00000000</i>
   <i name="DEG_THRESHOLD">      0.00200000</i>
   <i name="RTIME">     -0.10000000</i>
   <i name="WPLASMAI">      0.00000000</i>
   <v name="DFIELD">      0.00000000      0.00000000      0.00000000</v>
   <v name="WPLASMA">      0.00000000      0.00000000      0.00000000      0.00000000      0.00000000      0.00000000      0.00000000      0.00000000      0.00000000</v>
  </separator>
  <separator name="orbital magnetization" >
   <i type="logical" name="NUCIND"> F  </i>
   <v name="MAGPOS">      0.00000000      0.00000000      0.00000000</v>
   <i type="logical" name="LNICSALL"> T  </i>
   <i type="logical" name="ORBITALMAG"> F  </i>
   <i type="logical" name="LMAGBLOCH"> F  </i>
   <i type="logical" name="LCHIMAG"> F  </i>
   <i type="logical" name="LGAUGE"> T  </i>
   <i type="int" name="MAGATOM">     0</i>
   <v name="MAGDIPOL">      0.00000000      0.00000000      0.00000000</v>
   <v name="AVECCONST">      0.00000000      0.00000000      0.00000000</v>
  </separator>
  <separator name="response functions" >
   <i type="logical" name="LADDER"> F  </i>
   <i type="logical" name="LRPAFORCE"> F  </i>
   <i type="logical" name="LFXC"> F  </i>
   <i type="logical" name="LHARTREE"> T  </i>
   <i type="int" name="IBSE">     0</i>
   <v type="int" name="KPOINT">    -1     0     0     0</v>
   <i type="logical" name="LTCTE"> F  </i>
   <i type="logical" name="LTETE"> F  </i>
   <i type="logical" name="LTRIPLET"> F  </i>
   <i type="logical" name="LFXCEPS"> F  </i>
   <i type="logical" name="LFXHEG"> F  </i>
   <i type="int" name="NATURALO">     2</i>
   <i type="logical" name="L2ORDER"> F  </i>
   <i type="logical" name="LMP2LT"> F  </i>
   <i type="logical" name="LUSEW"> F  </i>
   <i name="ENCUTGW">     -2.00000000</i>
   <i name="ENCUTGWSOFT">     -2.00000000</i>
   <i name="ENCUTLF">     -1.00000000</i>
   <i type="int" name="LMAXMP2">    -1</i>
   <i name="SCISSOR">      0.00000000</i>
   <i type="int" name="NOMEGA">     0</i>
   <i type="int" name="NOMEGAR">     0</i>
   <i type="int" name="NBANDSGW">    -1</i>
   <i type="int" name="NBANDSO">    -1</i>
   <i type="int" name="NBANDSV">    -1</i>
   <i type="int" name="NELM">     1</i>
   <i type="int" name="NELMHF">     1</i>
   <i type="int" name="DIM">     3</i>
   <i type="int" name="ANTIRES">     0</i>
   <i name="OMEGAMAX">    -30.00000000</i>
   <i name="OMEGAMIN">    -30.00000000</i>
   <i name="OMEGATL">   -200.00000000</i>
   <i type="int" name="OMEGAGRID">   140</i>
   <i name="CSHIFT">     -0.10000000</i>
   <i type="logical" name="SELFENERGY"> F  </i>
   <i type="logical" name="LSPECTRAL"> F  </i>
   <i type="logical" name="LSPECTRALGW"> F  </i>
   <i type="logical" name="LSINGLES"> F  </i>
   <i type="logical" name="LFERMIGW"> F  </i>
   <i type="logical" name="ODDONLYGW"> F  </i>
   <i type="logical" name="EVENONLYGW"> F  </i>
   <i type="int" name="NKREDLFX">     1</i>
   <i type="int" name="NKREDLFY">     1</i>
   <i type="int" name="NKREDLFZ">     1</i>
   <i type="int" name="MAXMEM">  2800</i>
   <i type="int" name="TELESCOPE">     0</i>
   <i type="int" name="TAUPAR">     1</i>
   <i type="int" name="OMEGAPAR">    -1</i>
   <i name="LAMBDA">      1.00000000</i>
  </separator>
  <separator name="External order field" >
   <i name="OFIELD_KAPPA">      0.00000000</i>
   <v name="OFIELD_K">      0.00000000      0.00000000      0.00000000</v>
   <i name="OFIELD_Q6_NEAR">      0.00000000</i>
   <i name="OFIELD_Q6_FAR">      0.00000000</i>
   <i name="OFIELD_A">      0.00000000</i>
  </separator>
 </parameters>
 <atominfo>
  <atoms>      20 </atoms>
  <types>       2 </types>
  <array name="atoms" >
   <dimension dim="1">ion</dimension>
   <field type="string">element</field>
   <field type="int">atomtype</field>
   <set>
    <rc><c>V </c><c>   1</c></rc>
    <rc><c>V </c><c>   1</c></rc>
    <rc><c>V </c><c>   1</c></rc>
    <rc><c>V </c><c>   1</c></rc>
    <rc><c>V </c><c>   1</c></rc>
    <rc><c>V </c><c>   1</c></rc>
    <rc><c>V </c><c>   1</c></rc>
    <rc><c>V </c><c>   1</c></rc>
    <rc><c>V </c><c>   1</c></rc>
    <rc><c>V </c><c>   1</c></rc>
    <rc><c>V </c><c>   1</c></rc>
    <rc><c>V </c><c>   1</c></rc>
    <rc><c>V </c><c>   1</c></rc>
    <rc><c>V </c><c>   1</c></rc>
    <rc><c>V </c><c>   1</c></rc>
    <rc><c>V </c><c>   1</c></rc>
    <rc><c>V </c><c>   1</c></rc>
    <rc><c>Fe</c><c>   2</c></rc>
    <rc><c>Fe</c><c>   2</c></rc>
    <rc><c>Fe</c><c>   2</c></rc>
   </set>
  </array>
  <array name="atomtypes" >
   <dimension dim="1">type</dimension>
   <field type="int">atomspertype</field>
   <field type="string">element</field>
   <field>mass</field>
   <field>valence</field>
   <field type="string">pseudopotential</field>
   <set>
    <rc><c>  17</c><c>V </c><c>     50.94100000</c><c>      5.00000000</c><c>  PAW_PBE V 08Apr2002                   </c></rc>
    <rc><c>   3</c><c>Fe</c><c>     55.84700000</c><c>      8.00000000</c><c>  PAW_PBE Fe 06Sep2000                  </c></rc>
   </set>
  </array>
 </atominfo>
 <structure name="initialpos" >
  <crystal>
   <varray name="basis" >
    <v>       6.29983180      -0.67706031       0.00525358 </v>
    <v>      -0.93815051       9.63593538       0.01774345 </v>
    <v>      -0.00432940      -0.00812410       4.18312595 </v>
   </varray>
   <i name="volume">    251.27987019 </i>
   <varray name="rec_basis" >
    <v>       0.16041267       0.01561735       0.00019635 </v>
    <v>       0.01127104       0.10487514       0.00021534 </v>
    <v>      -0.00024927      -0.00046446       0.23905452 </v>
   </varray>
  </crystal>
  <varray name="positions" >
   <v>       0.09740823       0.22452010       0.54991422 </v>
   <v>       0.10872376       0.72553439       0.55030310 </v>
   <v>       0.49431097       0.32444199       0.54993097 </v>
   <v>       0.40010262       0.67511535       0.05027254 </v>
   <v>       0.80208469       0.77467561       0.05032082 </v>
   <v>       0.79284123       0.27354805       0.04991003 </v>
   <v>       0.99812199       0.57555212       0.05019122 </v>
   <v>       0.20591355       0.37744520       0.04994979 </v>
   <v>       0.70287714       0.12570295       0.54998423 </v>
   <v>       0.89292621       0.92424606       0.55022063 </v>
   <v>       0.90731772       0.42597673       0.54999907 </v>
   <v>       0.69148052       0.62469280       0.55023884 </v>
   <v>       0.19977377       0.87416907       0.05025729 </v>
   <v>       0.00743780       0.07667461       0.05004901 </v>
   <v>       0.30595366       0.02577403       0.55010845 </v>
   <v>       0.60045645       0.47605539       0.05006682 </v>
   <v>       0.59434743       0.97278286       0.05015587 </v>
   <v>       0.30083885       0.52526130       0.55013406 </v>
   <v>       0.49936280       0.82496616       0.55026966 </v>
   <v>       0.40012060       0.17510622       0.04996437 </v>
  </varray>
 </structure>
 <calculation>
  <scstep>
   <time name="dav">    6.71    6.79</time>
   <time name="total">    6.98    7.07</time>
   <energy>
    <i name="alphaZ">    569.58417628 </i>
    <i name="ewald">  -5379.19628598 </i>
    <i name="hartreedc">   -771.92486010 </i>
    <i name="XCdc">   -769.60612346 </i>
    <i name="pawpsdc">   5171.05454107 </i>
    <i name="pawaedc">  -4356.08836938 </i>
    <i name="eentropy">     -0.02072920 </i>
    <i name="bandstr">   1205.91594655 </i>
    <i name="atom">   4687.48422623 </i>
    <i name="e_fr_energy">    357.20252202 </i>
    <i name="e_wo_entrp">    357.22325122 </i>
    <i name="e_0_energy">    357.21288662 </i>
   </energy>
  </scstep>
  <scstep>
   <time name="dav">    6.59    6.60</time>
   <time name="total">    6.59    6.60</time>
   <energy>
    <i name="e_fr_energy">   -168.77305645 </i>
    <i name="e_wo_entrp">   -168.75872150 </i>
    <i name="e_0_energy">   -168.76588898 </i>
   </energy>
  </scstep>
  <scstep>
   <time name="dav">   15.96   16.04</time>
   <time name="total">   15.96   16.04</time>
   <energy>
    <i name="e_fr_energy">   -207.63679876 </i>
    <i name="e_wo_entrp">   -207.61690206 </i>
    <i name="e_0_energy">   -207.62685041 </i>
   </energy>
  </scstep>
  <scstep>
   <time name="dav">    9.14    9.18</time>
   <time name="total">    9.15    9.18</time>
   <energy>
    <i name="e_fr_energy">   -208.42192435 </i>
    <i name="e_wo_entrp">   -208.40207862 </i>
    <i name="e_0_energy">   -208.41200149 </i>
   </energy>
  </scstep>
  <scstep>
   <time name="dav">   15.09   15.19</time>
   <time name="total">   15.19   15.29</time>
   <energy>
    <i name="e_fr_energy">   -208.43268610 </i>
    <i name="e_wo_entrp">   -208.41283555 </i>
    <i name="e_0_energy">   -208.42276083 </i>
   </energy>
  </scstep>
  <scstep>
   <time name="dav">   13.72   13.79</time>
   <time name="total">   13.94   14.02</time>
   <energy>
    <i name="e_fr_energy">   -230.65186132 </i>
    <i name="e_wo_entrp">   -230.61558823 </i>
    <i name="e_0_energy">   -230.63372478 </i>
   </energy>
  </scstep>
  <scstep>
   <time name="dav">   15.98   16.07</time>
   <time name="total">   16.20   16.30</time>
   <energy>
    <i name="e_fr_energy">   -190.36136956 </i>
    <i name="e_wo_entrp">   -190.33403842 </i>
    <i name="e_0_energy">   -190.34770399 </i>
   </energy>
  </scstep>
  <scstep>
   <time name="dav">   20.33   20.45</time>
   <time name="total">   20.59   20.72</time>
   <energy>
    <i name="e_fr_energy">   -186.69486440 </i>
    <i name="e_wo_entrp">   -186.66442424 </i>
    <i name="e_0_energy">   -186.67964432 </i>
   </energy>
  </scstep>
  <scstep>
   <time name="dav">   17.22   17.29</time>
   <time name="total">   17.43   17.52</time>
   <energy>
    <i name="e_fr_energy">   -180.20758909 </i>
    <i name="e_wo_entrp">   -180.17816705 </i>
    <i name="e_0_energy">   -180.19287807 </i>
   </energy>
  </scstep>
  <scstep>
   <time name="dav">   15.91   15.92</time>
   <time name="total">   16.13   16.14</time>
   <energy>
    <i name="e_fr_energy">   -179.27860537 </i>
    <i name="e_wo_entrp">   -179.25181931 </i>
    <i name="e_0_energy">   -179.26521234 </i>
   </energy>
  </scstep>
  <scstep>
   <time name="dav">    9.12    9.13</time>
   <time name="total">    9.34    9.36</time>
   <energy>
    <i name="e_fr_energy">   -179.25161987 </i>
    <i name="e_wo_entrp">   -179.22450112 </i>
    <i name="e_0_energy">   -179.23806050 </i>
   </energy>
  </scstep>
  <scstep>
   <time name="dav">   15.84   15.85</time>
   <time name="total">   16.06   16.07</time>
   <energy>
    <i name="e_fr_energy">   -179.29552870 </i>
    <i name="e_wo_entrp">   -179.26521726 </i>
    <i name="e_0_energy">   -179.28037298 </i>
   </energy>
  </scstep>
  <scstep>
   <time name="dav">   15.72   15.79</time>
   <time name="total">   15.96   16.03</time>
   <energy>
    <i name="e_fr_energy">   -179.15607606 </i>
    <i name="e_wo_entrp">   -179.12766231 </i>
    <i name="e_0_energy">   -179.14186918 </i>
   </energy>
  </scstep>
  <scstep>
   <time name="dav">   17.05   17.05</time>
   <time name="total">   17.26   17.27</time>
   <energy>
    <i name="e_fr_energy">   -179.06163446 </i>
    <i name="e_wo_entrp">   -179.03365598 </i>
    <i name="e_0_energy">   -179.04764522 </i>
   </energy>
  </scstep>
  <scstep>
   <time name="dav">   16.71   16.71</time>
   <time name="total">   16.94   16.94</time>
   <energy>
    <i name="e_fr_energy">   -178.97748608 </i>
    <i name="e_wo_entrp">   -178.95015161 </i>
    <i name="e_0_energy">   -178.96381885 </i>
   </energy>
  </scstep>
  <scstep>
   <time name="dav">   18.96   18.97</time>
   <time name="total">   19.19   19.19</time>
   <energy>
    <i name="e_fr_energy">   -178.97552442 </i>
    <i name="e_wo_entrp">   -178.94803122 </i>
    <i name="e_0_energy">   -178.96177782 </i>
   </energy>
  </scstep>
  <scstep>
   <time name="dav">   16.22   16.22</time>
   <time name="total">   16.46   16.46</time>
   <energy>
    <i name="e_fr_energy">   -178.95384457 </i>
    <i name="e_wo_entrp">   -178.92650523 </i>
    <i name="e_0_energy">   -178.94017490 </i>
   </energy>
  </scstep>
  <scstep>
   <time name="dav">   15.68   15.68</time>
   <time name="total">   15.90   15.90</time>
   <energy>
    <i name="e_fr_energy">   -178.94821823 </i>
    <i name="e_wo_entrp">   -178.92093734 </i>
    <i name="e_0_energy">   -178.93457778 </i>
   </energy>
  </scstep>
  <scstep>
   <time name="dav">   15.50   15.51</time>
   <time name="total">   15.72   15.73</time>
   <energy>
    <i name="e_fr_energy">   -178.94531824 </i>
    <i name="e_wo_entrp">   -178.91817707 </i>
    <i name="e_0_energy">   -178.93174766 </i>
   </energy>
  </scstep>
  <scstep>
   <time name="dav">   15.66   15.71</time>
   <time name="total">   15.90   15.95</time>
   <energy>
    <i name="e_fr_energy">   -178.94426720 </i>
    <i name="e_wo_entrp">   -178.91724323 </i>
    <i name="e_0_energy">   -178.93075522 </i>
   </energy>
  </scstep>
  <scstep>
   <time name="dav">   15.45   15.45</time>
   <time name="total">   15.69   15.69</time>
   <energy>
    <i name="e_fr_energy">   -178.94334784 </i>
    <i name="e_wo_entrp">   -178.91636184 </i>
    <i name="e_0_energy">   -178.92985484 </i>
   </energy>
  </scstep>
  <scstep>
   <time name="dav">   12.40   12.40</time>
   <time name="total">   12.62   12.62</time>
   <energy>
    <i name="e_fr_energy">   -178.94333615 </i>
    <i name="e_wo_entrp">   -178.91635513 </i>
    <i name="e_0_energy">   -178.92984564 </i>
   </energy>
  </scstep>
  <scstep>
   <time name="dav">   15.17   15.17</time>
   <time name="total">   15.39   15.39</time>
   <energy>
    <i name="e_fr_energy">   -178.94320626 </i>
    <i name="e_wo_entrp">   -178.91623192 </i>
    <i name="e_0_energy">   -178.92971909 </i>
   </energy>
  </scstep>
  <scstep>
   <time name="dav">   12.72   12.72</time>
   <time name="total">   12.94   12.94</time>
   <energy>
    <i name="e_fr_energy">   -178.94320294 </i>
    <i name="e_wo_entrp">   -178.91623436 </i>
    <i name="e_0_energy">   -178.92971865 </i>
   </energy>
  </scstep>
  <scstep>
   <time name="dav">   15.68   15.68</time>
   <time name="total">   15.90   15.90</time>
   <energy>
    <i name="e_fr_energy">   -178.94320158 </i>
    <i name="e_wo_entrp">   -178.91623460 </i>
    <i name="e_0_energy">   -178.92971809 </i>
   </energy>
  </scstep>
  <scstep>
   <time name="dav">   15.10   15.10</time>
   <time name="total">   15.32   15.32</time>
   <energy>
    <i name="e_fr_energy">   -178.94320066 </i>
    <i name="e_wo_entrp">   -178.91623558 </i>
    <i name="e_0_energy">   -178.92971812 </i>
   </energy>
  </scstep>
  <scstep>
   <time name="dav">   15.80   15.81</time>
   <time name="total">   16.05   16.07</time>
   <energy>
    <i name="e_fr_energy">   -178.94319832 </i>
    <i name="e_wo_entrp">   -178.91623453 </i>
    <i name="e_0_energy">   -178.92971643 </i>
   </energy>
  </scstep>
  <scstep>
   <time name="dav">   14.65   14.66</time>
   <time name="total">   14.87   14.90</time>
   <energy>
    <i name="e_fr_energy">   -178.94319649 </i>
    <i name="e_wo_entrp">   -178.91623443 </i>
    <i name="e_0_energy">   -178.92971546 </i>
   </energy>
  </scstep>
  <scstep>
   <time name="dav">   15.18   15.27</time>
   <time name="total">   15.41   15.50</time>
   <energy>
    <i name="e_fr_energy">   -178.94319620 </i>
    <i name="e_wo_entrp">   -178.91623422 </i>
    <i name="e_0_energy">   -178.92971521 </i>
   </energy>
  </scstep>
  <scstep>
   <time name="dav">   11.97   11.98</time>
   <time name="total">   12.19   12.20</time>
   <energy>
    <i name="e_fr_energy">   -178.94319614 </i>
    <i name="e_wo_entrp">   -178.91623438 </i>
    <i name="e_0_energy">   -178.92971526 </i>
   </energy>
  </scstep>
  <scstep>
   <time name="dav">    9.81    9.81</time>
   <time name="total">   10.03   10.03</time>
   <energy>
    <i name="e_fr_energy">   -178.94319620 </i>
    <i name="e_wo_entrp">   -178.91623447 </i>
    <i name="e_0_energy">   -178.92971534 </i>
   </energy>
  </scstep>
  <scstep>
   <time name="dav">    5.05    5.05</time>
   <time name="total">    5.27    5.27</time>
   <energy>
    <i name="e_fr_energy">   -178.94319626 </i>
    <i name="e_wo_entrp">   -178.91623449 </i>
    <i name="e_0_energy">   -178.92971537 </i>
   </energy>
  </scstep>
  <scstep>
   <time name="dav">    5.20    5.20</time>
   <time name="total">    5.33    5.33</time>
   <energy>
    <i name="alphaZ">    569.58417628 </i>
    <i name="ewald">  -5379.19628598 </i>
    <i name="hartreedc">   -602.03011892 </i>
    <i name="XCdc">   -767.83631174 </i>
    <i name="pawpsdc">   7791.09704497 </i>
    <i name="pawaedc">  -6988.97151827 </i>
    <i name="eentropy">     -0.02696177 </i>
    <i name="bandstr">    510.95255293 </i>
    <i name="atom">   4687.48422623 </i>
    <i name="e_fr_energy">   -178.94319626 </i>
    <i name="e_wo_entrp">   -178.91623449 </i>
    <i name="e_0_energy">   -178.92971537 </i>
   </energy>
  </scstep>
  <structure>
   <crystal>
    <varray name="basis" >
     <v>       6.29983180      -0.67706031       0.00525358 </v>
     <v>      -0.93815051       9.63593538       0.01774345 </v>
     <v>      -0.00432940      -0.00812410       4.18312595 </v>
    </varray>
    <i name="volume">    251.27987019 </i>
    <varray name="rec_basis" >
     <v>       0.16041267       0.01561735       0.00019635 </v>
     <v>       0.01127104       0.10487514       0.00021534 </v>
     <v>      -0.00024927      -0.00046446       0.23905452 </v>
    </varray>
   </crystal>
   <varray name="positions" >
    <v>       0.09740823       0.22452010       0.54991422 </v>
    <v>       0.10872376       0.72553439       0.55030310 </v>
    <v>       0.49431097       0.32444199       0.54993097 </v>
    <v>       0.40010262       0.67511535       0.05027254 </v>
    <v>       0.80208469       0.77467561       0.05032082 </v>
    <v>       0.79284123       0.27354805       0.04991003 </v>
    <v>       0.99812199       0.57555212       0.05019122 </v>
    <v>       0.20591355       0.37744520       0.04994979 </v>
    <v>       0.70287714       0.12570295       0.54998423 </v>
    <v>       0.89292621       0.92424606       0.55022063 </v>
    <v>       0.90731772       0.42597673       0.54999907 </v>
    <v>       0.69148052       0.62469280       0.55023884 </v>
    <v>       0.19977377       0.87416907       0.05025729 </v>
    <v>       0.00743780       0.07667461       0.05004901 </v>
    <v>       0.30595366       0.02577403       0.55010845 </v>
    <v>       0.60045645       0.47605539       0.05006682 </v>
    <v>       0.59434743       0.97278286       0.05015587 </v>
    <v>       0.30083885       0.52526130       0.55013406 </v>
    <v>       0.49936280       0.82496616       0.55026966 </v>
    <v>       0.40012060       0.17510622       0.04996437 </v>
   </varray>
  </structure>
  <varray name="forces" >
   <v>       0.00107439       0.00150685       0.00096300 </v>
   <v>       0.00771321      -0.00259572      -0.00078110 </v>
   <v>      -0.00703775      -0.00382913       0.00080016 </v>
   <v>       0.00007308      -0.00001786      -0.00072739 </v>
   <v>       0.00325459       0.00079549      -0.00093750 </v>
   <v>      -0.01169807       0.00022693       0.00086329 </v>
   <v>      -0.00316035      -0.00085365      -0.00031640 </v>
   <v>      -0.00149899       0.00389968       0.00078108 </v>
   <v>      -0.00184888      -0.00146834       0.00050403 </v>
   <v>      -0.00507170      -0.00161151      -0.00053842 </v>
   <v>       0.00479133       0.00177219       0.00049623 </v>
   <v>      -0.00751884       0.00241104      -0.00049253 </v>
   <v>       0.00598365      -0.00129257      -0.00049721 </v>
   <v>       0.01103282      -0.00024676       0.00024548 </v>
   <v>       0.00656271       0.00405355       0.00001642 </v>
   <v>      -0.00616904       0.00111356       0.00023917 </v>
   <v>       0.00094456      -0.00393044      -0.00020286 </v>
   <v>      -0.00511857       0.00216111      -0.00034322 </v>
   <v>       0.00663188      -0.00228120      -0.00066238 </v>
   <v>       0.00105997       0.00018678       0.00059016 </v>
  </varray>
  <varray name="stress" >
   <v>       0.55996157      -0.95383555      -0.00177364 </v>
   <v>      -0.95383731       1.20630537       0.00808900 </v>
   <v>      -0.00177530       0.00808835      -0.51687149 </v>
  </varray>
  <energy>
   <i name="e_fr_energy">   -178.94319626 </i>
   <i name="e_wo_entrp">   -178.92971537 </i>
   <i name="e_0_energy">     -0.02696177 </i>
  </energy>
  <scstep>
   <time name="total">    1.83    1.84</time>
   <energy>
    <i name="e_fr_energy">   -329.97651272 </i>
    <i name="e_wo_entrp">   -329.97651272 </i>
    <i name="e_0_energy">   -329.97651272 </i>
   </energy>
  </scstep>
  <scstep>
   <time name="total">    1.47    1.47</time>
   <energy>
    <i name="e_fr_energy">   -382.35169243 </i>
    <i name="e_wo_entrp">   -382.35169243 </i>
    <i name="e_0_energy">   -382.35169243 </i>
   </energy>
  </scstep>
  <scstep>
   <time name="total">    1.97    1.97</time>
   <energy>
    <i name="e_fr_energy">   -399.44997376 </i>
    <i name="e_wo_entrp">   -399.44997376 </i>
    <i name="e_0_energy">   -399.44997376 </i>
   </energy>
  </scstep>
  <scstep>
   <time name="total">    1.70    1.70</time>
   <energy>
    <i name="e_fr_energy">   -400.95959788 </i>
    <i name="e_wo_entrp">   -400.95959788 </i>
    <i name="e_0_energy">   -400.95959788 </i>
   </energy>
  </scstep>
  <scstep>
   <time name="total">    1.59    1.59</time>
   <energy>
    <i name="e_fr_energy">   -401.06617110 </i>
    <i name="e_wo_entrp">   -401.06617110 </i>
    <i name="e_0_energy">   -401.06617110 </i>
   </energy>
  </scstep>
  <scstep>
   <time name="total">    1.60    1.61</time>
   <energy>
    <i name="e_fr_energy">   -401.07166544 </i>
    <i name="e_wo_entrp">   -401.07166544 </i>
    <i name="e_0_energy">   -401.07166544 </i>
   </energy>
  </scstep>
  <scstep>
   <time name="total">    1.62    1.62</time>
   <energy>
    <i name="e_fr_energy">   -401.07221383 </i>
    <i name="e_wo_entrp">   -401.07221383 </i>
    <i name="e_0_energy">   -401.07221383 </i>
   </energy>
  </scstep>
  <scstep>
   <time name="total">    1.62    1.62</time>
   <energy>
    <i name="e_fr_energy">   -401.07228250 </i>
    <i name="e_wo_entrp">   -401.07228250 </i>
    <i name="e_0_energy">   -401.07228250 </i>
   </energy>
  </scstep>
  <scstep>
   <time name="total">    1.62    1.62</time>
   <energy>
    <i name="e_fr_energy">   -401.07230175 </i>
    <i name="e_wo_entrp">   -401.07230175 </i>
    <i name="e_0_energy">   -401.07230175 </i>
   </energy>
  </scstep>
  <scstep>
   <time name="total">    1.61    1.61</time>
   <energy>
    <i name="e_fr_energy">   -401.07231036 </i>
    <i name="e_wo_entrp">   -401.07231036 </i>
    <i name="e_0_energy">   -401.07231036 </i>
   </energy>
  </scstep>
  <scstep>
   <time name="total">    1.62    1.63</time>
   <energy>
    <i name="e_fr_energy">   -401.07230997 </i>
    <i name="e_wo_entrp">   -401.07230997 </i>
    <i name="e_0_energy">   -401.07230997 </i>
   </energy>
  </scstep>
  <scstep>
   <time name="total">    1.64    1.64</time>
   <energy>
    <i name="e_fr_energy">   -401.07231366 </i>
    <i name="e_wo_entrp">   -401.07231366 </i>
    <i name="e_0_energy">   -401.07231366 </i>
   </energy>
  </scstep>
  <scstep>
   <time name="total">    1.52    1.52</time>
   <energy>
    <i name="e_fr_energy">   -401.07231098 </i>
    <i name="e_wo_entrp">   -401.07231098 </i>
    <i name="e_0_energy">   -401.07231098 </i>
   </energy>
  </scstep>
  <scstep>
   <time name="total">    1.53    1.53</time>
   <energy>
    <i name="e_fr_energy">   -401.07231554 </i>
    <i name="e_wo_entrp">   -401.07231554 </i>
    <i name="e_0_energy">   -401.07231554 </i>
   </energy>
  </scstep>
  <scstep>
   <time name="total">    1.82    1.82</time>
   <energy>
    <i name="e_fr_energy">   -322.98356523 </i>
    <i name="e_wo_entrp">   -322.98356523 </i>
    <i name="e_0_energy">   -322.98356523 </i>
   </energy>
  </scstep>
  <scstep>
   <time name="total">    1.47    1.47</time>
   <energy>
    <i name="e_fr_energy">   -380.64003440 </i>
    <i name="e_wo_entrp">   -380.64003440 </i>
    <i name="e_0_energy">   -380.64003440 </i>
   </energy>
  </scstep>
  <scstep>
   <time name="total">    1.96    1.96</time>
   <energy>
    <i name="e_fr_energy">   -397.22288383 </i>
    <i name="e_wo_entrp">   -397.22288383 </i>
    <i name="e_0_energy">   -397.22288383 </i>
   </energy>
  </scstep>
  <scstep>
   <time name="total">    1.71    1.71</time>
   <energy>
    <i name="e_fr_energy">   -398.83324932 </i>
    <i name="e_wo_entrp">   -398.83324932 </i>
    <i name="e_0_energy">   -398.83324932 </i>
   </energy>
  </scstep>
  <scstep>
   <time name="total">    1.59    1.59</time>
   <energy>
    <i name="e_fr_energy">   -398.94541597 </i>
    <i name="e_wo_entrp">   -398.94541597 </i>
    <i name="e_0_energy">   -398.94541597 </i>
   </energy>
  </scstep>
  <scstep>
   <time name="total">    1.62    1.63</time>
   <energy>
    <i name="e_fr_energy">   -398.95033582 </i>
    <i name="e_wo_entrp">   -398.95033582 </i>
    <i name="e_0_energy">   -398.95033582 </i>
   </energy>
  </scstep>
  <scstep>
   <time name="total">    1.60    1.60</time>
   <energy>
    <i name="e_fr_energy">   -398.95076788 </i>
    <i name="e_wo_entrp">   -398.95076788 </i>
    <i name="e_0_energy">   -398.95076788 </i>
   </energy>
  </scstep>
  <scstep>
   <time name="total">    1.64    1.64</time>
   <energy>
    <i name="e_fr_energy">   -398.95086389 </i>
    <i name="e_wo_entrp">   -398.95086389 </i>
    <i name="e_0_energy">   -398.95086389 </i>
   </energy>
  </scstep>
  <scstep>
   <time name="total">    1.72    1.72</time>
   <energy>
    <i name="e_fr_energy">   -398.95088864 </i>
    <i name="e_wo_entrp">   -398.95088864 </i>
    <i name="e_0_energy">   -398.95088864 </i>
   </energy>
  </scstep>
  <scstep>
   <time name="total">    1.61    1.61</time>
   <energy>
    <i name="e_fr_energy">   -398.95087527 </i>
    <i name="e_wo_entrp">   -398.95087527 </i>
    <i name="e_0_energy">   -398.95087527 </i>
   </energy>
  </scstep>
  <scstep>
   <time name="total">    1.63    1.63</time>
   <energy>
    <i name="e_fr_energy">   -398.95089466 </i>
    <i name="e_wo_entrp">   -398.95089466 </i>
    <i name="e_0_energy">   -398.95089466 </i>
   </energy>
  </scstep>
  <scstep>
   <time name="total">    1.61    1.61</time>
   <energy>
    <i name="e_fr_energy">   -398.95088552 </i>
    <i name="e_wo_entrp">   -398.95088552 </i>
    <i name="e_0_energy">   -398.95088552 </i>
   </energy>
  </scstep>
  <scstep>
   <time name="total">    1.56    1.56</time>
   <energy>
    <i name="e_fr_energy">   -398.95089753 </i>
    <i name="e_wo_entrp">   -398.95089753 </i>
    <i name="e_0_energy">   -398.95089753 </i>
   </energy>
  </scstep>
  <scstep>
   <time name="total">    1.51    1.51</time>
   <energy>
    <i name="e_fr_energy">   -398.95088844 </i>
    <i name="e_wo_entrp">   -398.95088844 </i>
    <i name="e_0_energy">   -398.95088844 </i>
   </energy>
  </scstep>
  <scstep>
   <time name="total">    1.83    1.84</time>
   <energy>
    <i name="e_fr_energy">   -320.12317678 </i>
    <i name="e_wo_entrp">   -320.12317678 </i>
    <i name="e_0_energy">   -320.12317678 </i>
   </energy>
  </scstep>
  <scstep>
   <time name="total">    1.50    1.50</time>
   <energy>
    <i name="e_fr_energy">   -376.84709838 </i>
    <i name="e_wo_entrp">   -376.84709838 </i>
    <i name="e_0_energy">   -376.84709838 </i>
   </energy>
  </scstep>
  <scstep>
   <time name="total">    1.96    1.97</time>
   <energy>
    <i name="e_fr_energy">   -393.38164528 </i>
    <i name="e_wo_entrp">   -393.38164528 </i>
    <i name="e_0_energy">   -393.38164528 </i>
   </energy>
  </scstep>
  <scstep>
   <time name="total">    1.68    1.69</time>
   <energy>
    <i name="e_fr_energy">   -394.83961387 </i>
    <i name="e_wo_entrp">   -394.83961387 </i>
    <i name="e_0_energy">   -394.83961387 </i>
   </energy>
  </scstep>
  <scstep>
   <time name="total">    1.63    1.63</time>
   <energy>
    <i name="e_fr_energy">   -394.94650746 </i>
    <i name="e_wo_entrp">   -394.94650746 </i>
    <i name="e_0_energy">   -394.94650746 </i>
   </energy>
  </scstep>
  <scstep>
   <time name="total">    1.62    1.62</time>
   <energy>
    <i name="e_fr_energy">   -394.95104378 </i>
    <i name="e_wo_entrp">   -394.95104378 </i>
    <i name="e_0_energy">   -394.95104378 </i>
   </energy>
  </scstep>
  <scstep>
   <time name="total">    1.62    1.63</time>
   <energy>
    <i name="e_fr_energy">   -394.95147024 </i>
    <i name="e_wo_entrp">   -394.95147024 </i>
    <i name="e_0_energy">   -394.95147024 </i>
   </energy>
  </scstep>
  <scstep>
   <time name="total">    1.63    1.63</time>
   <energy>
    <i name="e_fr_energy">   -394.95158791 </i>
    <i name="e_wo_entrp">   -394.95158791 </i>
    <i name="e_0_energy">   -394.95158791 </i>
   </energy>
  </scstep>
  <scstep>
   <time name="total">    1.61    1.62</time>
   <energy>
    <i name="e_fr_energy">   -394.95158654 </i>
    <i name="e_wo_entrp">   -394.95158654 </i>
    <i name="e_0_energy">   -394.95158654 </i>
   </energy>
  </scstep>
  <scstep>
   <time name="total">    1.61    1.62</time>
   <energy>
    <i name="e_fr_energy">   -394.95159853 </i>
    <i name="e_wo_entrp">   -394.95159853 </i>
    <i name="e_0_energy">   -394.95159853 </i>
   </energy>
  </scstep>
  <scstep>
   <time name="total">    1.61    1.61</time>
   <energy>
    <i name="e_fr_energy">   -394.95159134 </i>
    <i name="e_wo_entrp">   -394.95159134 </i>
    <i name="e_0_energy">   -394.95159134 </i>
   </energy>
  </scstep>
  <scstep>
   <time name="total">    1.58    1.58</time>
   <energy>
    <i name="e_fr_energy">   -394.95159323 </i>
    <i name="e_wo_entrp">   -394.95159323 </i>
    <i name="e_0_energy">   -394.95159323 </i>
   </energy>
  </scstep>
  <scstep>
   <time name="total">    1.48    1.48</time>
   <energy>
    <i name="e_fr_energy">   -394.95158670 </i>
    <i name="e_wo_entrp">   -394.95158670 </i>
    <i name="e_0_energy">   -394.95158670 </i>
   </energy>
  </scstep>
  <scstep>
   <time name="total">    1.46    1.46</time>
   <energy>
    <i name="e_fr_energy">   -394.95158777 </i>
    <i name="e_wo_entrp">   -394.95158777 </i>
    <i name="e_0_energy">   -394.95158777 </i>
   </energy>
  </scstep>
  <scstep>
   <time name="total">    1.85    1.86</time>
   <energy>
    <i name="e_fr_energy">   -911.39619153 </i>
    <i name="e_wo_entrp">   -911.39619153 </i>
    <i name="e_0_energy">   -911.39619153 </i>
   </energy>
  </scstep>
  <scstep>
   <time name="total">    1.86    1.86</time>
   <energy>
    <i name="e_fr_energy">  -7032.13319682 </i>
    <i name="e_wo_entrp">  -7032.13319682 </i>
    <i name="e_0_energy">  -7032.13319682 </i>
   </energy>
  </scstep>
  <scstep>
   <time name="total">    2.11    2.12</time>
   <energy>
    <i name="e_fr_energy">  -8568.81930832 </i>
    <i name="e_wo_entrp">  -8568.81930832 </i>
    <i name="e_0_energy">  -8568.81930832 </i>
   </energy>
  </scstep>
  <scstep>
   <time name="total">    2.34    2.35</time>
   <energy>
    <i name="e_fr_energy">  -8612.15308814 </i>
    <i name="e_wo_entrp">  -8612.15308814 </i>
    <i name="e_0_energy">  -8612.15308814 </i>
   </energy>
  </scstep>
  <scstep>
   <time name="total">    2.43    2.44</time>
   <energy>
    <i name="e_fr_energy">  -8586.48687185 </i>
    <i name="e_wo_entrp">  -8586.48687185 </i>
    <i name="e_0_energy">  -8586.48687185 </i>
   </energy>
  </scstep>
  <scstep>
   <time name="total">    2.46    2.46</time>
   <energy>
    <i name="e_fr_energy">  -8587.15910036 </i>
    <i name="e_wo_entrp">  -8587.15910036 </i>
    <i name="e_0_energy">  -8587.15910036 </i>
   </energy>
  </scstep>
  <scstep>
   <time name="total">    2.55    2.56</time>
   <energy>
    <i name="e_fr_energy">  -8579.39570170 </i>
    <i name="e_wo_entrp">  -8579.39570170 </i>
    <i name="e_0_energy">  -8579.39570170 </i>
   </energy>
  </scstep>
  <scstep>
   <time name="total">    2.48    2.49</time>
   <energy>
    <i name="e_fr_energy">  -8575.27941600 </i>
    <i name="e_wo_entrp">  -8575.27941600 </i>
    <i name="e_0_energy">  -8575.27941600 </i>
   </energy>
  </scstep>
  <scstep>
   <time name="total">    2.45    2.45</time>
   <energy>
    <i name="e_fr_energy">  -8574.12741467 </i>
    <i name="e_wo_entrp">  -8574.12741467 </i>
    <i name="e_0_energy">  -8574.12741467 </i>
   </energy>
  </scstep>
  <scstep>
   <time name="total">    2.43    2.43</time>
   <energy>
    <i name="e_fr_energy">  -8573.95716298 </i>
    <i name="e_wo_entrp">  -8573.95716298 </i>
    <i name="e_0_energy">  -8573.95716298 </i>
   </energy>
  </scstep>
  <scstep>
   <time name="total">    2.41    2.43</time>
   <energy>
    <i name="e_fr_energy">  -8573.89795567 </i>
    <i name="e_wo_entrp">  -8573.89795567 </i>
    <i name="e_0_energy">  -8573.89795567 </i>
   </energy>
  </scstep>
  <scstep>
   <time name="total">    2.35    2.35</time>
   <energy>
    <i name="e_fr_energy">  -8573.88886873 </i>
    <i name="e_wo_entrp">  -8573.88886873 </i>
    <i name="e_0_energy">  -8573.88886873 </i>
   </energy>
  </scstep>
  <scstep>
   <time name="total">    2.35    2.35</time>
   <energy>
    <i name="e_fr_energy">  -8573.88451436 </i>
    <i name="e_wo_entrp">  -8573.88451436 </i>
    <i name="e_0_energy">  -8573.88451436 </i>
   </energy>
  </scstep>
  <scstep>
   <time name="total">    2.14    2.14</time>
   <energy>
    <i name="e_fr_energy">  -8573.88395977 </i>
    <i name="e_wo_entrp">  -8573.88395977 </i>
    <i name="e_0_energy">  -8573.88395977 </i>
   </energy>
  </scstep>
  <scstep>
   <time name="total">    2.15    2.15</time>
   <energy>
    <i name="e_fr_energy">  -8573.88364608 </i>
    <i name="e_wo_entrp">  -8573.88364608 </i>
    <i name="e_0_energy">  -8573.88364608 </i>
   </energy>
  </scstep>
  <scstep>
   <time name="total">    2.10    2.11</time>
   <energy>
    <i name="e_fr_energy">  -8573.88355169 </i>
    <i name="e_wo_entrp">  -8573.88355169 </i>
    <i name="e_0_energy">  -8573.88355169 </i>
   </energy>
  </scstep>
  <scstep>
   <time name="total">    1.85    1.85</time>
   <energy>
    <i name="e_fr_energy">   -118.42242360 </i>
    <i name="e_wo_entrp">   -118.42242360 </i>
    <i name="e_0_energy">   -118.42242360 </i>
   </energy>
  </scstep>
  <scstep>
   <time name="total">    1.86    1.86</time>
   <energy>
    <i name="e_fr_energy">  -2638.65204099 </i>
    <i name="e_wo_entrp">  -2638.65204099 </i>
    <i name="e_0_energy">  -2638.65204099 </i>
   </energy>
  </scstep>
  <scstep>
   <time name="total">    2.10    2.10</time>
   <energy>
    <i name="e_fr_energy">  -3160.96852903 </i>
    <i name="e_wo_entrp">  -3160.96852903 </i>
    <i name="e_0_energy">  -3160.96852903 </i>
   </energy>
  </scstep>
  <scstep>
   <time name="total">    2.34    2.34</time>
   <energy>
    <i name="e_fr_energy">  -3194.47273830 </i>
    <i name="e_wo_entrp">  -3194.47273830 </i>
    <i name="e_0_energy">  -3194.47273830 </i>
   </energy>
  </scstep>
  <scstep>
   <time name="total">    2.44    2.44</time>
   <energy>
    <i name="e_fr_energy">  -3195.94134066 </i>
    <i name="e_wo_entrp">  -3195.94134066 </i>
    <i name="e_0_energy">  -3195.94134066 </i>
   </energy>
  </scstep>
  <scstep>
   <time name="total">    2.48    2.49</time>
   <energy>
    <i name="e_fr_energy">  -3197.20632325 </i>
    <i name="e_wo_entrp">  -3197.20632325 </i>
    <i name="e_0_energy">  -3197.20632325 </i>
   </energy>
  </scstep>
  <scstep>
   <time name="total">    2.43    2.43</time>
   <energy>
    <i name="e_fr_energy">  -3197.33018406 </i>
    <i name="e_wo_entrp">  -3197.33018406 </i>
    <i name="e_0_energy">  -3197.33018406 </i>
   </energy>
  </scstep>
  <scstep>
   <time name="total">    2.45    2.45</time>
   <energy>
    <i name="e_fr_energy">  -3197.25256343 </i>
    <i name="e_wo_entrp">  -3197.25256343 </i>
    <i name="e_0_energy">  -3197.25256343 </i>
   </energy>
  </scstep>
  <scstep>
   <time name="total">    2.43    2.43</time>
   <energy>
    <i name="e_fr_energy">  -3197.24323874 </i>
    <i name="e_wo_entrp">  -3197.24323874 </i>
    <i name="e_0_energy">  -3197.24323874 </i>
   </energy>
  </scstep>
  <scstep>
   <time name="total">    2.43    2.43</time>
   <energy>
    <i name="e_fr_energy">  -3197.24094895 </i>
    <i name="e_wo_entrp">  -3197.24094895 </i>
    <i name="e_0_energy">  -3197.24094895 </i>
   </energy>
  </scstep>
  <scstep>
   <time name="total">    2.42    2.42</time>
   <energy>
    <i name="e_fr_energy">  -3197.24013529 </i>
    <i name="e_wo_entrp">  -3197.24013529 </i>
    <i name="e_0_energy">  -3197.24013529 </i>
   </energy>
  </scstep>
  <scstep>
   <time name="total">    2.39    2.39</time>
   <energy>
    <i name="e_fr_energy">  -3197.24020223 </i>
    <i name="e_wo_entrp">  -3197.24020223 </i>
    <i name="e_0_energy">  -3197.24020223 </i>
   </energy>
  </scstep>
  <scstep>
   <time name="total">    2.27    2.27</time>
   <energy>
    <i name="e_fr_energy">  -3197.24010460 </i>
    <i name="e_wo_entrp">  -3197.24010460 </i>
    <i name="e_0_energy">  -3197.24010460 </i>
   </energy>
  </scstep>
  <scstep>
   <time name="total">    2.15    2.15</time>
   <energy>
    <i name="e_fr_energy">  -3197.24012560 </i>
    <i name="e_wo_entrp">  -3197.24012560 </i>
    <i name="e_0_energy">  -3197.24012560 </i>
   </energy>
  </scstep>
  <scstep>
   <time name="total">    2.10    2.10</time>
   <energy>
    <i name="e_fr_energy">  -3197.24010287 </i>
    <i name="e_wo_entrp">  -3197.24010287 </i>
    <i name="e_0_energy">  -3197.24010287 </i>
   </energy>
  </scstep>
  <scstep>
   <time name="total">    2.11    2.11</time>
   <energy>
    <i name="e_fr_energy">  -3197.24011188 </i>
    <i name="e_wo_entrp">  -3197.24011188 </i>
    <i name="e_0_energy">  -3197.24011188 </i>
   </energy>
  </scstep>
  <scstep>
   <time name="total">    1.94    1.94</time>
   <energy>
    <i name="e_fr_energy">   -346.13543222 </i>
    <i name="e_wo_entrp">   -346.13543222 </i>
    <i name="e_0_energy">   -346.13543222 </i>
   </energy>
  </scstep>
  <scstep>
   <time name="total">    1.96    1.96</time>
   <energy>
    <i name="e_fr_energy">  -4581.56699833 </i>
    <i name="e_wo_entrp">  -4581.56699833 </i>
    <i name="e_0_energy">  -4581.56699833 </i>
   </energy>
  </scstep>
  <scstep>
   <time name="total">    2.15    2.15</time>
   <energy>
    <i name="e_fr_energy">  -5580.36038199 </i>
    <i name="e_wo_entrp">  -5580.36038199 </i>
    <i name="e_0_energy">  -5580.36038199 </i>
   </energy>
  </scstep>
  <scstep>
   <time name="total">    2.34    2.34</time>
   <energy>
    <i name="e_fr_energy">  -5630.00016058 </i>
    <i name="e_wo_entrp">  -5630.00016058 </i>
    <i name="e_0_energy">  -5630.00016058 </i>
   </energy>
  </scstep>
  <scstep>
   <time name="total">    2.42    2.42</time>
   <energy>
    <i name="e_fr_energy">  -5646.10095538 </i>
    <i name="e_wo_entrp">  -5646.10095538 </i>
    <i name="e_0_energy">  -5646.10095538 </i>
   </energy>
  </scstep>
  <scstep>
   <time name="total">    2.46    2.47</time>
   <energy>
    <i name="e_fr_energy">  -5648.87925762 </i>
    <i name="e_wo_entrp">  -5648.87925762 </i>
    <i name="e_0_energy">  -5648.87925762 </i>
   </energy>
  </scstep>
  <scstep>
   <time name="total">    2.43    2.43</time>
   <energy>
    <i name="e_fr_energy">  -5650.46676376 </i>
    <i name="e_wo_entrp">  -5650.46676376 </i>
    <i name="e_0_energy">  -5650.46676376 </i>
   </energy>
  </scstep>
  <scstep>
   <time name="total">    2.52    2.52</time>
   <energy>
    <i name="e_fr_energy">  -5650.73847975 </i>
    <i name="e_wo_entrp">  -5650.73847975 </i>
    <i name="e_0_energy">  -5650.73847975 </i>
   </energy>
  </scstep>
  <scstep>
   <time name="total">    2.44    2.44</time>
   <energy>
    <i name="e_fr_energy">  -5650.68824042 </i>
    <i name="e_wo_entrp">  -5650.68824042 </i>
    <i name="e_0_energy">  -5650.68824042 </i>
   </energy>
  </scstep>
  <scstep>
   <time name="total">    2.45    2.45</time>
   <energy>
    <i name="e_fr_energy">  -5650.67467771 </i>
    <i name="e_wo_entrp">  -5650.67467771 </i>
    <i name="e_0_energy">  -5650.67467771 </i>
   </energy>
  </scstep>
  <scstep>
   <time name="total">    2.41    2.41</time>
   <energy>
    <i name="e_fr_energy">  -5650.67034090 </i>
    <i name="e_wo_entrp">  -5650.67034090 </i>
    <i name="e_0_energy">  -5650.67034090 </i>
   </energy>
  </scstep>
  <scstep>
   <time name="total">    2.35    2.36</time>
   <energy>
    <i name="e_fr_energy">  -5650.66802192 </i>
    <i name="e_wo_entrp">  -5650.66802192 </i>
    <i name="e_0_energy">  -5650.66802192 </i>
   </energy>
  </scstep>
  <scstep>
   <time name="total">    2.28    2.28</time>
   <energy>
    <i name="e_fr_energy">  -5650.66808971 </i>
    <i name="e_wo_entrp">  -5650.66808971 </i>
    <i name="e_0_energy">  -5650.66808971 </i>
   </energy>
  </scstep>
  <scstep>
   <time name="total">    2.15    2.15</time>
   <energy>
    <i name="e_fr_energy">  -5650.66780243 </i>
    <i name="e_wo_entrp">  -5650.66780243 </i>
    <i name="e_0_energy">  -5650.66780243 </i>
   </energy>
  </scstep>
  <scstep>
   <time name="total">    2.14    2.14</time>
   <energy>
    <i name="e_fr_energy">  -5650.66783613 </i>
    <i name="e_wo_entrp">  -5650.66783613 </i>
    <i name="e_0_energy">  -5650.66783613 </i>
   </energy>
  </scstep>
  <scstep>
   <time name="total">    2.10    2.10</time>
   <energy>
    <i name="e_fr_energy">  -5650.66782544 </i>
    <i name="e_wo_entrp">  -5650.66782544 </i>
    <i name="e_0_energy">  -5650.66782544 </i>
   </energy>
  </scstep>
  <varray name="epsilon_rpa" >
   <v>   12349.54580697     754.45005461    -101.66749714 </v>
   <v>    1455.47246506    4605.82875190       1.40590794 </v>
   <v>       1.09743716      55.62292174    8139.38090432 </v>
  </varray>
  <kpoints>
   <generation param="Monkhorst-Pack">
    <v type="int" name="divisions">       5        4        8 </v>
    <v name="usershift">      0.00000000       0.00000000       0.00000000 </v>
    <v name="genvec1">      0.20000000       0.00000000      -0.00000000 </v>
    <v name="genvec2">     -0.00000000       0.25000000       0.00000000 </v>
    <v name="genvec3">     -0.00000000       0.00000000       0.12500000 </v>
    <v name="shift">      0.00000000       0.50000000       0.50000000 </v>
   </generation>
   <varray name="kpointlist" >
    <v>       0.00000000       0.12500000       0.06250000 </v>
    <v>       0.20000000       0.12500000       0.06250000 </v>
    <v>       0.40000000       0.12500000       0.06250000 </v>
    <v>      -0.40000000       0.12500000       0.06250000 </v>
    <v>      -0.20000000       0.12500000       0.06250000 </v>
    <v>       0.00000000       0.37500000       0.06250000 </v>
    <v>       0.20000000       0.37500000       0.06250000 </v>
    <v>       0.40000000       0.37500000       0.06250000 </v>
    <v>      -0.40000000       0.37500000       0.06250000 </v>
    <v>      -0.20000000       0.37500000       0.06250000 </v>
    <v>       0.00000000      -0.37500000       0.06250000 </v>
    <v>       0.20000000      -0.37500000       0.06250000 </v>
    <v>       0.40000000      -0.37500000       0.06250000 </v>
    <v>      -0.40000000      -0.37500000       0.06250000 </v>
    <v>      -0.20000000      -0.37500000       0.06250000 </v>
    <v>       0.00000000      -0.12500000       0.06250000 </v>
    <v>       0.20000000      -0.12500000       0.06250000 </v>
    <v>       0.40000000      -0.12500000       0.06250000 </v>
    <v>      -0.40000000      -0.12500000       0.06250000 </v>
    <v>      -0.20000000      -0.12500000       0.06250000 </v>
    <v>       0.00000000       0.12500000       0.18750000 </v>
    <v>       0.20000000       0.12500000       0.18750000 </v>
    <v>       0.40000000       0.12500000       0.18750000 </v>
    <v>      -0.40000000       0.12500000       0.18750000 </v>
    <v>      -0.20000000       0.12500000       0.18750000 </v>
    <v>       0.00000000       0.37500000       0.18750000 </v>
    <v>       0.20000000       0.37500000       0.18750000 </v>
    <v>       0.40000000       0.37500000       0.18750000 </v>
    <v>      -0.40000000       0.37500000       0.18750000 </v>
    <v>      -0.20000000       0.37500000       0.18750000 </v>
    <v>       0.00000000      -0.37500000       0.18750000 </v>
    <v>       0.20000000      -0.37500000       0.18750000 </v>
    <v>       0.40000000      -0.37500000       0.18750000 </v>
    <v>      -0.40000000      -0.37500000       0.18750000 </v>
    <v>      -0.20000000      -0.37500000       0.18750000 </v>
    <v>       0.00000000      -0.12500000       0.18750000 </v>
    <v>       0.20000000      -0.12500000       0.18750000 </v>
    <v>       0.40000000      -0.12500000       0.18750000 </v>
    <v>      -0.40000000      -0.12500000       0.18750000 </v>
    <v>      -0.20000000      -0.12500000       0.18750000 </v>
    <v>       0.00000000       0.12500000       0.31250000 </v>
    <v>       0.20000000       0.12500000       0.31250000 </v>
    <v>       0.40000000       0.12500000       0.31250000 </v>
    <v>      -0.40000000       0.12500000       0.31250000 </v>
    <v>      -0.20000000       0.12500000       0.31250000 </v>
    <v>       0.00000000       0.37500000       0.31250000 </v>
    <v>       0.20000000       0.37500000       0.31250000 </v>
    <v>       0.40000000       0.37500000       0.31250000 </v>
    <v>      -0.40000000       0.37500000       0.31250000 </v>
    <v>      -0.20000000       0.37500000       0.31250000 </v>
    <v>       0.00000000      -0.37500000       0.31250000 </v>
    <v>       0.20000000      -0.37500000       0.31250000 </v>
    <v>       0.40000000      -0.37500000       0.31250000 </v>
    <v>      -0.40000000      -0.37500000       0.31250000 </v>
    <v>      -0.20000000      -0.37500000       0.31250000 </v>
    <v>       0.00000000      -0.12500000       0.31250000 </v>
    <v>       0.20000000      -0.12500000       0.31250000 </v>
    <v>       0.40000000      -0.12500000       0.31250000 </v>
    <v>      -0.40000000      -0.12500000       0.31250000 </v>
    <v>      -0.20000000      -0.12500000       0.31250000 </v>
    <v>       0.00000000       0.12500000       0.43750000 </v>
    <v>       0.20000000       0.12500000       0.43750000 </v>
    <v>       0.40000000       0.12500000       0.43750000 </v>
    <v>      -0.40000000       0.12500000       0.43750000 </v>
    <v>      -0.20000000       0.12500000       0.43750000 </v>
    <v>       0.00000000       0.37500000       0.43750000 </v>
    <v>       0.20000000       0.37500000       0.43750000 </v>
    <v>       0.40000000       0.37500000       0.43750000 </v>
    <v>      -0.40000000       0.37500000       0.43750000 </v>
    <v>      -0.20000000       0.37500000       0.43750000 </v>
    <v>       0.00000000      -0.37500000       0.43750000 </v>
    <v>       0.20000000      -0.37500000       0.43750000 </v>
    <v>       0.40000000      -0.37500000       0.43750000 </v>
    <v>      -0.40000000      -0.37500000       0.43750000 </v>
    <v>      -0.20000000      -0.37500000       0.43750000 </v>
    <v>       0.00000000      -0.12500000       0.43750000 </v>
    <v>       0.20000000      -0.12500000       0.43750000 </v>
    <v>       0.40000000      -0.12500000       0.43750000 </v>
    <v>      -0.40000000      -0.12500000       0.43750000 </v>
    <v>      -0.20000000      -0.12500000       0.43750000 </v>
   </varray>
   <varray name="weights" >
    <v>       0.01250000 </v>
    <v>       0.01250000 </v>
    <v>       0.01250000 </v>
    <v>       0.01250000 </v>
    <v>       0.01250000 </v>
    <v>       0.01250000 </v>
    <v>       0.01250000 </v>
    <v>       0.01250000 </v>
    <v>       0.01250000 </v>
    <v>       0.01250000 </v>
    <v>       0.01250000 </v>
    <v>       0.01250000 </v>
    <v>       0.01250000 </v>
    <v>       0.01250000 </v>
    <v>       0.01250000 </v>
    <v>       0.01250000 </v>
    <v>       0.01250000 </v>
    <v>       0.01250000 </v>
    <v>       0.01250000 </v>
    <v>       0.01250000 </v>
    <v>       0.01250000 </v>
    <v>       0.01250000 </v>
    <v>       0.01250000 </v>
    <v>       0.01250000 </v>
    <v>       0.01250000 </v>
    <v>       0.01250000 </v>
    <v>       0.01250000 </v>
    <v>       0.01250000 </v>
    <v>       0.01250000 </v>
    <v>       0.01250000 </v>
    <v>       0.01250000 </v>
    <v>       0.01250000 </v>
    <v>       0.01250000 </v>
    <v>       0.01250000 </v>
    <v>       0.01250000 </v>
    <v>       0.01250000 </v>
    <v>       0.01250000 </v>
    <v>       0.01250000 </v>
    <v>       0.01250000 </v>
    <v>       0.01250000 </v>
    <v>       0.01250000 </v>
    <v>       0.01250000 </v>
    <v>       0.01250000 </v>
    <v>       0.01250000 </v>
    <v>       0.01250000 </v>
    <v>       0.01250000 </v>
    <v>       0.01250000 </v>
    <v>       0.01250000 </v>
    <v>       0.01250000 </v>
    <v>       0.01250000 </v>
    <v>       0.01250000 </v>
    <v>       0.01250000 </v>
    <v>       0.01250000 </v>
    <v>       0.01250000 </v>
    <v>       0.01250000 </v>
    <v>       0.01250000 </v>
    <v>       0.01250000 </v>
    <v>       0.01250000 </v>
    <v>       0.01250000 </v>
    <v>       0.01250000 </v>
    <v>       0.01250000 </v>
    <v>       0.01250000 </v>
    <v>       0.01250000 </v>
    <v>       0.01250000 </v>
    <v>       0.01250000 </v>
    <v>       0.01250000 </v>
    <v>       0.01250000 </v>
    <v>       0.01250000 </v>
    <v>       0.01250000 </v>
    <v>       0.01250000 </v>
    <v>       0.01250000 </v>
    <v>       0.01250000 </v>
    <v>       0.01250000 </v>
    <v>       0.01250000 </v>
    <v>       0.01250000 </v>
    <v>       0.01250000 </v>
    <v>       0.01250000 </v>
    <v>       0.01250000 </v>
    <v>       0.01250000 </v>
    <v>       0.01250000 </v>
   </varray>
  </kpoints>
  <scstep>
   <time name="total">    1.86    1.86</time>
   <energy>
    <i name="e_fr_energy">   -911.39619153 </i>
    <i name="e_wo_entrp">   -911.39619153 </i>
    <i name="e_0_energy">   -911.39619153 </i>
   </energy>
  </scstep>
  <scstep>
   <time name="total">    2.04    2.04</time>
   <energy>
    <i name="e_fr_energy">  -7032.13319695 </i>
    <i name="e_wo_entrp">  -7032.13319695 </i>
    <i name="e_0_energy">  -7032.13319695 </i>
   </energy>
  </scstep>
  <scstep>
   <time name="total">    2.20    2.20</time>
   <energy>
    <i name="e_fr_energy">  -8570.11349100 </i>
    <i name="e_wo_entrp">  -8570.11349100 </i>
    <i name="e_0_energy">  -8570.11349100 </i>
   </energy>
  </scstep>
  <scstep>
   <time name="total">    2.29    2.29</time>
   <energy>
    <i name="e_fr_energy">  -8521.81652161 </i>
    <i name="e_wo_entrp">  -8521.81652161 </i>
    <i name="e_0_energy">  -8521.81652161 </i>
   </energy>
  </scstep>
  <scstep>
   <time name="total">    2.44    2.44</time>
   <energy>
    <i name="e_fr_energy">  -8671.30201048 </i>
    <i name="e_wo_entrp">  -8671.30201048 </i>
    <i name="e_0_energy">  -8671.30201048 </i>
   </energy>
  </scstep>
  <scstep>
   <time name="total">    2.45    2.45</time>
   <energy>
    <i name="e_fr_energy">  -8550.03500833 </i>
    <i name="e_wo_entrp">  -8550.03500833 </i>
    <i name="e_0_energy">  -8550.03500833 </i>
   </energy>
  </scstep>
  <scstep>
   <time name="total">    2.43    2.43</time>
   <energy>
    <i name="e_fr_energy">  -8570.72500485 </i>
    <i name="e_wo_entrp">  -8570.72500485 </i>
    <i name="e_0_energy">  -8570.72500485 </i>
   </energy>
  </scstep>
  <scstep>
   <time name="total">    2.47    2.47</time>
   <energy>
    <i name="e_fr_energy">  -8589.71423990 </i>
    <i name="e_wo_entrp">  -8589.71423990 </i>
    <i name="e_0_energy">  -8589.71423990 </i>
   </energy>
  </scstep>
  <scstep>
   <time name="total">    2.46    2.46</time>
   <energy>
    <i name="e_fr_energy">  -8559.37451898 </i>
    <i name="e_wo_entrp">  -8559.37451898 </i>
    <i name="e_0_energy">  -8559.37451898 </i>
   </energy>
  </scstep>
  <scstep>
   <time name="total">    2.48    2.48</time>
   <energy>
    <i name="e_fr_energy">  -8566.70064585 </i>
    <i name="e_wo_entrp">  -8566.70064585 </i>
    <i name="e_0_energy">  -8566.70064585 </i>
   </energy>
  </scstep>
  <scstep>
   <time name="total">    2.46    2.46</time>
   <energy>
    <i name="e_fr_energy">  -8577.58620637 </i>
    <i name="e_wo_entrp">  -8577.58620637 </i>
    <i name="e_0_energy">  -8577.58620637 </i>
   </energy>
  </scstep>
  <scstep>
   <time name="total">    2.68    2.68</time>
   <energy>
    <i name="e_fr_energy">  -8575.37097190 </i>
    <i name="e_wo_entrp">  -8575.37097190 </i>
    <i name="e_0_energy">  -8575.37097190 </i>
   </energy>
  </scstep>
  <scstep>
   <time name="total">    2.46    2.46</time>
   <energy>
    <i name="e_fr_energy">  -8575.97069849 </i>
    <i name="e_wo_entrp">  -8575.97069849 </i>
    <i name="e_0_energy">  -8575.97069849 </i>
   </energy>
  </scstep>
  <scstep>
   <time name="total">    2.45    2.45</time>
   <energy>
    <i name="e_fr_energy">  -8576.83233150 </i>
    <i name="e_wo_entrp">  -8576.83233150 </i>
    <i name="e_0_energy">  -8576.83233150 </i>
   </energy>
  </scstep>
  <scstep>
   <time name="total">    2.50    2.50</time>
   <energy>
    <i name="e_fr_energy">  -8576.20824298 </i>
    <i name="e_wo_entrp">  -8576.20824298 </i>
    <i name="e_0_energy">  -8576.20824298 </i>
   </energy>
  </scstep>
  <scstep>
   <time name="total">    2.46    2.46</time>
   <energy>
    <i name="e_fr_energy">  -8575.76654431 </i>
    <i name="e_wo_entrp">  -8575.76654431 </i>
    <i name="e_0_energy">  -8575.76654431 </i>
   </energy>
  </scstep>
  <scstep>
   <time name="total">    2.51    2.51</time>
   <energy>
    <i name="e_fr_energy">  -8575.80624662 </i>
    <i name="e_wo_entrp">  -8575.80624662 </i>
    <i name="e_0_energy">  -8575.80624662 </i>
   </energy>
  </scstep>
  <scstep>
   <time name="total">    2.46    2.46</time>
   <energy>
    <i name="e_fr_energy">  -8575.80146660 </i>
    <i name="e_wo_entrp">  -8575.80146660 </i>
    <i name="e_0_energy">  -8575.80146660 </i>
   </energy>
  </scstep>
  <scstep>
   <time name="total">    2.58    2.58</time>
   <energy>
    <i name="e_fr_energy">  -8575.96446086 </i>
    <i name="e_wo_entrp">  -8575.96446086 </i>
    <i name="e_0_energy">  -8575.96446086 </i>
   </energy>
  </scstep>
  <scstep>
   <time name="total">    2.47    2.47</time>
   <energy>
    <i name="e_fr_energy">  -8576.13441131 </i>
    <i name="e_wo_entrp">  -8576.13441131 </i>
    <i name="e_0_energy">  -8576.13441131 </i>
   </energy>
  </scstep>
  <scstep>
   <time name="total">    2.49    2.49</time>
   <energy>
    <i name="e_fr_energy">  -8576.09698697 </i>
    <i name="e_wo_entrp">  -8576.09698697 </i>
    <i name="e_0_energy">  -8576.09698697 </i>
   </energy>
  </scstep>
  <scstep>
   <time name="total">    2.47    2.47</time>
   <energy>
    <i name="e_fr_energy">  -8576.07164762 </i>
    <i name="e_wo_entrp">  -8576.07164762 </i>
    <i name="e_0_energy">  -8576.07164762 </i>
   </energy>
  </scstep>
  <scstep>
   <time name="total">    2.68    2.68</time>
   <energy>
    <i name="e_fr_energy">  -8576.07637726 </i>
    <i name="e_wo_entrp">  -8576.07637726 </i>
    <i name="e_0_energy">  -8576.07637726 </i>
   </energy>
  </scstep>
  <scstep>
   <time name="total">    2.50    2.50</time>
   <energy>
    <i name="e_fr_energy">  -8576.07876815 </i>
    <i name="e_wo_entrp">  -8576.07876815 </i>
    <i name="e_0_energy">  -8576.07876815 </i>
   </energy>
  </scstep>
  <scstep>
   <time name="total">    2.54    2.54</time>
   <energy>
    <i name="e_fr_energy">  -8576.07842220 </i>
    <i name="e_wo_entrp">  -8576.07842220 </i>
    <i name="e_0_energy">  -8576.07842220 </i>
   </energy>
  </scstep>
  <scstep>
   <time name="total">    2.50    2.50</time>
   <energy>
    <i name="e_fr_energy">  -8576.07787895 </i>
    <i name="e_wo_entrp">  -8576.07787895 </i>
    <i name="e_0_energy">  -8576.07787895 </i>
   </energy>
  </scstep>
  <scstep>
   <time name="total">    2.53    2.53</time>
   <energy>
    <i name="e_fr_energy">  -8576.07684628 </i>
    <i name="e_wo_entrp">  -8576.07684628 </i>
    <i name="e_0_energy">  -8576.07684628 </i>
   </energy>
  </scstep>
  <scstep>
   <time name="total">    2.64    2.64</time>
   <energy>
    <i name="e_fr_energy">  -8576.07732574 </i>
    <i name="e_wo_entrp">  -8576.07732574 </i>
    <i name="e_0_energy">  -8576.07732574 </i>
   </energy>
  </scstep>
  <scstep>
   <time name="total">    2.65    2.65</time>
   <energy>
    <i name="e_fr_energy">  -8576.07697381 </i>
    <i name="e_wo_entrp">  -8576.07697381 </i>
    <i name="e_0_energy">  -8576.07697381 </i>
   </energy>
  </scstep>
  <scstep>
   <time name="total">    2.47    2.47</time>
   <energy>
    <i name="e_fr_energy">  -8576.07704151 </i>
    <i name="e_wo_entrp">  -8576.07704151 </i>
    <i name="e_0_energy">  -8576.07704151 </i>
   </energy>
  </scstep>
  <scstep>
   <time name="total">    2.45    2.45</time>
   <energy>
    <i name="e_fr_energy">  -8576.07706456 </i>
    <i name="e_wo_entrp">  -8576.07706456 </i>
    <i name="e_0_energy">  -8576.07706456 </i>
   </energy>
  </scstep>
  <kpoints>
   <generation param="Monkhorst-Pack">
    <v type="int" name="divisions">       5        4        8 </v>
    <v name="usershift">      0.00000000       0.00000000       0.00000000 </v>
    <v name="genvec1">      0.20000000       0.00000000      -0.00000000 </v>
    <v name="genvec2">     -0.00000000       0.25000000       0.00000000 </v>
    <v name="genvec3">     -0.00000000       0.00000000       0.12500000 </v>
    <v name="shift">      0.00000000       0.50000000       0.50000000 </v>
   </generation>
   <varray name="kpointlist" >
    <v>       0.00000000       0.12500000       0.06250000 </v>
    <v>       0.20000000       0.12500000       0.06250000 </v>
    <v>       0.40000000       0.12500000       0.06250000 </v>
    <v>      -0.40000000       0.12500000       0.06250000 </v>
    <v>      -0.20000000       0.12500000       0.06250000 </v>
    <v>       0.00000000       0.37500000       0.06250000 </v>
    <v>       0.20000000       0.37500000       0.06250000 </v>
    <v>       0.40000000       0.37500000       0.06250000 </v>
    <v>      -0.40000000       0.37500000       0.06250000 </v>
    <v>      -0.20000000       0.37500000       0.06250000 </v>
    <v>       0.00000000      -0.37500000       0.06250000 </v>
    <v>       0.20000000      -0.37500000       0.06250000 </v>
    <v>       0.40000000      -0.37500000       0.06250000 </v>
    <v>      -0.40000000      -0.37500000       0.06250000 </v>
[...]
       <r>    4.3457    1.0000 </r>
       <r>    4.4439    1.0000 </r>
       <r>    4.6502    1.0000 </r>
       <r>    4.7176    1.0000 </r>
       <r>    4.7400    1.0000 </r>
       <r>    4.7634    1.0000 </r>
       <r>    4.8480    1.0000 </r>
       <r>    4.9273    1.0000 </r>
       <r>    4.9867    1.0000 </r>
       <r>    5.0570    1.0000 </r>
       <r>    5.1117    1.0000 </r>
       <r>    5.1294    1.0000 </r>
       <r>    5.1802    1.0000 </r>
       <r>    5.2459    1.0000 </r>
       <r>    5.3385    1.0000 </r>
       <r>    5.3616    1.0000 </r>
       <r>    5.4085    1.0000 </r>
       <r>    5.4319    1.0000 </r>
       <r>    5.4632    1.0000 </r>
       <r>    5.4788    1.0000 </r>
       <r>    5.5203    1.0000 </r>
       <r>    5.5534    1.0000 </r>
       <r>    5.6358    1.0000 </r>
       <r>    5.7136    1.0000 </r>
       <r>    5.8018    1.0000 </r>
       <r>    5.8373    1.0000 </r>
       <r>    5.8560    1.0000 </r>
       <r>    5.9575    1.0000 </r>
       <r>    6.0177    1.0000 </r>
       <r>    6.0564    1.0000 </r>
       <r>    6.1384    1.0000 </r>
       <r>    6.2190    1.0000 </r>
       <r>    6.3315    1.0000 </r>
       <r>    6.5950    0.2789 </r>
       <r>    6.6338    0.0463 </r>
       <r>    6.7109    0.0001 </r>
       <r>    6.8192    0.0000 </r>
       <r>    7.0530    0.0000 </r>
       <r>    7.1505    0.0000 </r>
       <r>    7.2439    0.0000 </r>
       <r>    7.2833    0.0000 </r>
       <r>    7.3599    0.0000 </r>
       <r>    7.4111    0.0000 </r>
       <r>    7.5100    0.0000 </r>
       <r>    7.5650    0.0000 </r>
       <r>    7.6246    0.0000 </r>
       <r>    7.6316    0.0000 </r>
       <r>    7.7115    0.0000 </r>
       <r>    7.7662    0.0000 </r>
       <r>    7.8563    0.0000 </r>
       <r>    7.9047    0.0000 </r>
       <r>    7.9585    0.0000 </r>
       <r>    8.0167    0.0000 </r>
       <r>    8.0477    0.0000 </r>
       <r>    8.1261    0.0000 </r>
       <r>    8.2160    0.0000 </r>
       <r>    8.3378    0.0000 </r>
       <r>    8.4809    0.0000 </r>
       <r>    8.5777    0.0000 </r>
       <r>    8.6732    0.0000 </r>
       <r>    8.7440    0.0000 </r>
       <r>    8.8213    0.0000 </r>
       <r>    8.8702    0.0000 </r>
       <r>    8.8917    0.0000 </r>
       <r>    8.9479    0.0000 </r>
       <r>    9.0339    0.0000 </r>
       <r>    9.0520    0.0000 </r>
       <r>    9.0727    0.0000 </r>
       <r>    9.1671    0.0000 </r>
       <r>    9.2017    0.0000 </r>
       <r>    9.2102    0.0000 </r>
       <r>    9.2498    0.0000 </r>
       <r>    9.3021    0.0000 </r>
       <r>    9.3267    0.0000 </r>
       <r>    9.3533    0.0000 </r>
       <r>    9.4025    0.0000 </r>
       <r>    9.4409    0.0000 </r>
      </set>
     </set>
    </set>
   </array>
  </eigenvalues>
  <separator name="orbital magnetization" >
   <v name="MAGDIPOLOUT">      0.00000000      0.00000000      0.00000000</v>
  </separator>
  <dos>
   <i name="efermi">      6.57431577 </i>
   <total>
    <array>
     <dimension dim="1">gridpoints</dimension>
     <dimension dim="2">spin</dimension>
     <field>energy</field>
     <field>total</field>
     <field>integrated</field>
     <set>
      <set comment="spin 1">
       <r>    -0.8263     0.0000     0.0000 </r>
       <r>    -0.7900     0.0000     0.0000 </r>
       <r>    -0.7538     0.0000     0.0000 </r>
       <r>    -0.7175     0.0000     0.0000 </r>
       <r>    -0.6813     0.0000     0.0000 </r>
       <r>    -0.6451     0.0000     0.0000 </r>
       <r>    -0.6088     0.0000     0.0000 </r>
       <r>    -0.5726     0.0000     0.0000 </r>
       <r>    -0.5363     0.0000     0.0000 </r>
       <r>    -0.5001     0.0000     0.0000 </r>
       <r>    -0.4639     0.0001     0.0000 </r>
       <r>    -0.4276     0.0028     0.0001 </r>
       <r>    -0.3914     0.0423     0.0016 </r>
       <r>    -0.3552     0.2404     0.0103 </r>
       <r>    -0.3189     0.5180     0.0291 </r>
       <r>    -0.2827     0.4276     0.0446 </r>
       <r>    -0.2464     0.1611     0.0505 </r>
       <r>    -0.2102     0.2076     0.0580 </r>
       <r>    -0.1740     0.5510     0.0779 </r>
       <r>    -0.1377     0.8407     0.1084 </r>
       <r>    -0.1015     1.0359     0.1459 </r>
       <r>    -0.0652     1.0421     0.1837 </r>
       <r>    -0.0290     0.9718     0.2189 </r>
       <r>     0.0072     1.1142     0.2593 </r>
       <r>     0.0435     0.8280     0.2893 </r>
       <r>     0.0797     0.3402     0.3016 </r>
       <r>     0.1160     0.4200     0.3169 </r>
       <r>     0.1522     0.9758     0.3522 </r>
       <r>     0.1884     1.5081     0.4069 </r>
       <r>     0.2247     1.5023     0.4613 </r>
       <r>     0.2609     1.0477     0.4993 </r>
       <r>     0.2972     1.0236     0.5364 </r>
       <r>     0.3334     1.1892     0.5795 </r>
       <r>     0.3696     1.1883     0.6225 </r>
       <r>     0.4059     1.8401     0.6892 </r>
       <r>     0.4421     2.1580     0.7674 </r>
       <r>     0.4784     1.4449     0.8198 </r>
       <r>     0.5146     0.6912     0.8448 </r>
       <r>     0.5508     0.5053     0.8632 </r>
       <r>     0.5871     0.9399     0.8972 </r>
       <r>     0.6233     1.1977     0.9406 </r>
       <r>     0.6595     1.7052     1.0024 </r>
       <r>     0.6958     3.2021     1.1185 </r>
       <r>     0.7320     3.5083     1.2456 </r>
       <r>     0.7683     2.4763     1.3353 </r>
       <r>     0.8045     1.8348     1.4018 </r>
       <r>     0.8407     1.1692     1.4442 </r>
       <r>     0.8770     0.7554     1.4716 </r>
       <r>     0.9132     0.8271     1.5015 </r>
       <r>     0.9495     1.1262     1.5424 </r>
       <r>     0.9857     1.4666     1.5955 </r>
       <r>     1.0219     1.8631     1.6630 </r>
       <r>     1.0582     2.1159     1.7397 </r>
       <r>     1.0944     1.4564     1.7925 </r>
       <r>     1.1307     1.1344     1.8336 </r>
       <r>     1.1669     1.7183     1.8959 </r>
       <r>     1.2031     2.1955     1.9754 </r>
       <r>     1.2394     2.7627     2.0755 </r>
       <r>     1.2756     3.0321     2.1854 </r>
       <r>     1.3119     2.7995     2.2869 </r>
       <r>     1.3481     2.8055     2.3885 </r>
       <r>     1.3843     2.7213     2.4872 </r>
       <r>     1.4206     2.2064     2.5671 </r>
       <r>     1.4568     1.9716     2.6386 </r>
       <r>     1.4931     2.0092     2.7114 </r>
       <r>     1.5293     2.3468     2.7964 </r>
       <r>     1.5655     3.5063     2.9235 </r>
       <r>     1.6018     3.9392     3.0663 </r>
       <r>     1.6380     2.6567     3.1625 </r>
       <r>     1.6743     1.6642     3.2228 </r>
       <r>     1.7105     1.9408     3.2932 </r>
       <r>     1.7467     2.3887     3.3797 </r>
       <r>     1.7830     2.4129     3.4672 </r>
       <r>     1.8192     2.6067     3.5616 </r>
       <r>     1.8554     2.9368     3.6681 </r>
       <r>     1.8917     3.2972     3.7876 </r>
       <r>     1.9279     3.8282     3.9263 </r>
       <r>     1.9642     3.6354     4.0580 </r>
       <r>     2.0004     3.0499     4.1686 </r>
       <r>     2.0366     3.3755     4.2909 </r>
       <r>     2.0729     3.6836     4.4244 </r>
       <r>     2.1091     3.2225     4.5412 </r>
       <r>     2.1454     3.2380     4.6585 </r>
       <r>     2.1816     4.0919     4.8068 </r>
       <r>     2.2178     4.7363     4.9784 </r>
       <r>     2.2541     4.5567     5.1436 </r>
       <r>     2.2903     3.5636     5.2727 </r>
       <r>     2.3266     3.1826     5.3881 </r>
       <r>     2.3628     4.0706     5.5356 </r>
       <r>     2.3990     4.7411     5.7074 </r>
       <r>     2.4353     4.4250     5.8677 </r>
       <r>     2.4715     4.1085     6.0166 </r>
       <r>     2.5078     4.0723     6.1642 </r>
       <r>     2.5440     3.8850     6.3050 </r>
       <r>     2.5802     4.1296     6.4547 </r>
       <r>     2.6165     4.8043     6.6288 </r>
       <r>     2.6527     5.4413     6.8259 </r>
       <r>     2.6890     6.3740     7.0569 </r>
       <r>     2.7252     7.4226     7.3259 </r>
       <r>     2.7614     7.9414     7.6137 </r>
       <r>     2.7977     7.3917     7.8816 </r>
       <r>     2.8339     7.6315     8.1581 </r>
       <r>     2.8701     9.0342     8.4855 </r>
       <r>     2.9064     9.6814     8.8364 </r>
       <r>     2.9426     9.0309     9.1637 </r>
       <r>     2.9789     8.2467     9.4625 </r>
       <r>     3.0151     8.0951     9.7559 </r>
       <r>     3.0513    10.1132    10.1224 </r>
       <r>     3.0876    12.8752    10.5890 </r>
       <r>     3.1238    14.3809    11.1101 </r>
       <r>     3.1601    16.5473    11.7098 </r>
       <r>     3.1963    19.1118    12.4024 </r>
       <r>     3.2325    19.0390    13.0923 </r>
       <r>     3.2688    18.5016    13.7628 </r>
       <r>     3.3050    20.0248    14.4885 </r>
       <r>     3.3413    22.9550    15.3204 </r>
       <r>     3.3775    23.5935    16.1754 </r>
       <r>     3.4137    21.2503    16.9455 </r>
       <r>     3.4500    20.3960    17.6846 </r>
       <r>     3.4862    23.2592    18.5275 </r>
       <r>     3.5225    25.1118    19.4376 </r>
       <r>     3.5587    23.0412    20.2726 </r>
       <r>     3.5949    21.7774    21.0618 </r>
       <r>     3.6312    23.3873    21.9093 </r>
       <r>     3.6674    25.3117    22.8266 </r>
       <r>     3.7037    26.8646    23.8002 </r>
       <r>     3.7399    27.7265    24.8049 </r>
       <r>     3.7761    27.5324    25.8027 </r>
       <r>     3.8124    28.1268    26.8220 </r>
       <r>     3.8486    29.2188    27.8809 </r>
       <r>     3.8849    28.7919    28.9243 </r>
       <r>     3.9211    26.7675    29.8943 </r>
       <r>     3.9573    25.5175    30.8190 </r>
       <r>     3.9936    26.3579    31.7742 </r>
       <r>     4.0298    27.0971    32.7562 </r>
       <r>     4.0660    28.2474    33.7799 </r>
       <r>     4.1023    28.4487    34.8108 </r>
       <r>     4.1385    25.4595    35.7335 </r>
       <r>     4.1748    22.9887    36.5666 </r>
       <r>     4.2110    23.0906    37.4034 </r>
       <r>     4.2472    23.9945    38.2729 </r>
       <r>     4.2835    24.1772    39.1491 </r>
       <r>     4.3197    23.0148    39.9831 </r>
       <r>     4.3560    22.1222    40.7848 </r>
       <r>     4.3922    21.1503    41.5513 </r>
       <r>     4.4284    18.3058    42.2147 </r>
       <r>     4.4647    15.6159    42.7806 </r>
       <r>     4.5009    14.3294    43.2999 </r>
       <r>     4.5372    13.7309    43.7975 </r>
       <r>     4.5734    13.9811    44.3041 </r>
       <r>     4.6096    19.6287    45.0155 </r>
       <r>     4.6459    28.8822    46.0621 </r>
       <r>     4.6821    33.9604    47.2928 </r>
       <r>     4.7184    33.6382    48.5119 </r>
       <r>     4.7546    33.9202    49.7411 </r>
       <r>     4.7908    36.1189    51.0500 </r>
       <r>     4.8271    37.8617    52.4221 </r>
       <r>     4.8633    38.8649    53.8306 </r>
       <r>     4.8996    38.0329    55.2088 </r>
       <r>     4.9358    36.8150    56.5430 </r>
       <r>     4.9720    35.3648    57.8246 </r>
       <r>     5.0083    32.9197    59.0176 </r>
       <r>     5.0445    31.5017    60.1592 </r>
       <r>     5.0807    30.6420    61.2696 </r>
       <r>     5.1170    30.1594    62.3626 </r>
       <r>     5.1532    28.8742    63.4090 </r>
       <r>     5.1895    26.7534    64.3785 </r>
       <r>     5.2257    27.8931    65.3893 </r>
       <r>     5.2619    30.1687    66.4826 </r>
       <r>     5.2982    30.4484    67.5860 </r>
       <r>     5.3344    28.5071    68.6191 </r>
       <r>     5.3707    26.9958    69.5974 </r>
       <r>     5.4069    27.7996    70.6049 </r>
       <r>     5.4431    30.0646    71.6944 </r>
       <r>     5.4794    32.6218    72.8766 </r>
       <r>     5.5156    33.4910    74.0903 </r>
       <r>     5.5519    35.0454    75.3603 </r>
       <r>     5.5881    35.5893    76.6500 </r>
       <r>     5.6243    34.0712    77.8848 </r>
       <r>     5.6606    34.4423    79.1329 </r>
       <r>     5.6968    33.6606    80.3528 </r>
       <r>     5.7331    31.2225    81.4842 </r>
       <r>     5.7693    33.1282    82.6848 </r>
       <r>     5.8055    37.6270    84.0484 </r>
       <r>     5.8418    38.5171    85.4442 </r>
       <r>     5.8780    35.8632    86.7439 </r>
       <r>     5.9143    34.2826    87.9862 </r>
       <r>     5.9505    33.3520    89.1949 </r>
       <r>     5.9867    33.1561    90.3964 </r>
       <r>     6.0230    34.9686    91.6637 </r>
       <r>     6.0592    38.4568    93.0573 </r>
       <r>     6.0955    40.8028    94.5360 </r>
       <r>     6.1317    39.9585    95.9841 </r>
       <r>     6.1679    35.7304    97.2789 </r>
       <r>     6.2042    32.9535    98.4731 </r>
       <r>     6.2404    33.1031    99.6728 </r>
       <r>     6.2766    33.7298   100.8951 </r>
       <r>     6.3129    34.5362   102.1467 </r>
       <r>     6.3491    32.6447   103.3297 </r>
       <r>     6.3854    27.1265   104.3128 </r>
       <r>     6.4216    24.5666   105.2030 </r>
       <r>     6.4578    25.6587   106.1329 </r>
       <r>     6.4941    26.0010   107.0751 </r>
       <r>     6.5303    24.9902   107.9808 </r>
       <r>     6.5666    23.4409   108.8302 </r>
       <r>     6.6028    20.6772   109.5796 </r>
       <r>     6.6390    17.4953   110.2136 </r>
       <r>     6.6753    15.0572   110.7593 </r>
       <r>     6.7115    15.7007   111.3282 </r>
       <r>     6.7478    17.1939   111.9513 </r>
       <r>     6.7840    16.6956   112.5564 </r>
       <r>     6.8202    15.3491   113.1126 </r>
       <r>     6.8565    14.3378   113.6322 </r>
       <r>     6.8927    12.3768   114.0807 </r>
       <r>     6.9290    11.1665   114.4854 </r>
       <r>     6.9652    11.0163   114.8846 </r>
       <r>     7.0014    10.2136   115.2548 </r>
       <r>     7.0377    10.0618   115.6194 </r>
       <r>     7.0739    11.5510   116.0380 </r>
       <r>     7.1102    13.4476   116.5253 </r>
       <r>     7.1464    15.4542   117.0854 </r>
       <r>     7.1826    16.9151   117.6984 </r>
       <r>     7.2189    16.9487   118.3126 </r>
       <r>     7.2551    18.6026   118.9867 </r>
       <r>     7.2913    22.0319   119.7851 </r>
       <r>     7.3276    26.5297   120.7466 </r>
       <r>     7.3638    33.8750   121.9742 </r>
       <r>     7.4001    40.2008   123.4310 </r>
       <r>     7.4363    40.2189   124.8885 </r>
       <r>     7.4725    35.8397   126.1873 </r>
       <r>     7.5088    31.3815   127.3246 </r>
       <r>     7.5450    27.8305   128.3331 </r>
       <r>     7.5813    25.2312   129.2475 </r>
       <r>     7.6175    26.3691   130.2031 </r>
       <r>     7.6537    28.0969   131.2213 </r>
       <r>     7.6900    26.7162   132.1895 </r>
       <r>     7.7262    25.9308   133.1292 </r>
       <r>     7.7625    26.6242   134.0940 </r>
       <r>     7.7987    27.9402   135.1066 </r>
       <r>     7.8349    27.6425   136.1083 </r>
       <r>     7.8712    24.9571   137.0128 </r>
       <r>     7.9074    23.5303   137.8655 </r>
       <r>     7.9437    25.1996   138.7787 </r>
       <r>     7.9799    27.2081   139.7647 </r>
       <r>     8.0161    27.7705   140.7711 </r>
       <r>     8.0524    27.9501   141.7840 </r>
       <r>     8.0886    26.4709   142.7433 </r>
       <r>     8.1249    23.1334   143.5816 </r>
       <r>     8.1611    21.4543   144.3591 </r>
       <r>     8.1973    22.0144   145.1569 </r>
       <r>     8.2336    22.4452   145.9703 </r>
       <r>     8.2698    21.3514   146.7440 </r>
       <r>     8.3061    20.8997   147.5014 </r>
       <r>     8.3423    21.3963   148.2768 </r>
       <r>     8.3785    20.6614   149.0256 </r>
       <r>     8.4148    20.4047   149.7650 </r>
       <r>     8.4510    21.0211   150.5268 </r>
       <r>     8.4872    22.7280   151.3505 </r>
       <r>     8.5235    24.5578   152.2404 </r>
       <r>     8.5597    24.8186   153.1398 </r>
       <r>     8.5960    25.1360   154.0507 </r>
       <r>     8.6322    25.3559   154.9696 </r>
       <r>     8.6684    24.6682   155.8636 </r>
       <r>     8.7047    25.5681   156.7902 </r>
       <r>     8.7409    28.2522   157.8140 </r>
       <r>     8.7772    32.2494   158.9827 </r>
       <r>     8.8134    34.7415   160.2417 </r>
       <r>     8.8496    34.3002   161.4847 </r>
       <r>     8.8859    33.8454   162.7113 </r>
       <r>     8.9221    33.9927   163.9431 </r>
       <r>     8.9584    35.0825   165.2145 </r>
       <r>     8.9946    36.1754   166.5255 </r>
       <r>     9.0308    39.9214   167.9722 </r>
       <r>     9.0671    45.5083   169.6214 </r>
       <r>     9.1033    47.5021   171.3428 </r>
       <r>     9.1396    48.1926   173.0893 </r>
       <r>     9.1758    48.9144   174.8619 </r>
       <r>     9.2120    50.1613   176.6797 </r>
       <r>     9.2483    54.5099   178.6551 </r>
       <r>     9.2845    59.8991   180.8259 </r>
       <r>     9.3208    64.1394   183.1502 </r>
       <r>     9.3570    65.5912   185.5272 </r>
       <r>     9.3932    61.6359   187.7608 </r>
       <r>     9.4295    50.3818   189.5867 </r>
       <r>     9.4657    34.1626   190.8247 </r>
       <r>     9.5019    18.7577   191.5044 </r>
       <r>     9.5382     8.9489   191.8287 </r>
       <r>     9.5744     3.6607   191.9614 </r>
       <r>     9.6107     0.9426   191.9956 </r>
       <r>     9.6469     0.1160   191.9998 </r>
       <r>     9.6831     0.0060   192.0000 </r>
       <r>     9.7194     0.0001   192.0000 </r>
       <r>     9.7556     0.0000   192.0000 </r>
       <r>     9.7919     0.0000   192.0000 </r>
       <r>     9.8281     0.0000   192.0000 </r>
       <r>     9.8643     0.0000   192.0000 </r>
       <r>     9.9006     0.0000   192.0000 </r>
       <r>     9.9368     0.0000   192.0000 </r>
       <r>     9.9731     0.0000   192.0000 </r>
       <r>    10.0093     0.0000   192.0000 </r>
       <r>    10.0455     0.0000   192.0000 </r>
      </set>
     </set>
    </array>
   </total>
  </dos>
 </calculation>
 <structure name="finalpos" >
  <crystal>
   <varray name="basis" >
    <v>       6.29983180      -0.67706031       0.00525358 </v>
    <v>      -0.93815051       9.63593538       0.01774345 </v>
    <v>      -0.00432940      -0.00812410       4.18312595 </v>
   </varray>
   <i name="volume">    251.27987019 </i>
   <varray name="rec_basis" >
    <v>       0.16041267       0.01561735       0.00019635 </v>
    <v>       0.01127104       0.10487514       0.00021534 </v>
    <v>      -0.00024927      -0.00046446       0.23905452 </v>
   </varray>
  </crystal>
  <varray name="positions" >
   <v>       0.09740823       0.22452010       0.54991422 </v>
   <v>       0.10872376       0.72553439       0.55030310 </v>
   <v>       0.49431097       0.32444199       0.54993097 </v>
   <v>       0.40010262       0.67511535       0.05027254 </v>
   <v>       0.80208469       0.77467561       0.05032082 </v>
   <v>       0.79284123       0.27354805       0.04991003 </v>
   <v>       0.99812199       0.57555212       0.05019122 </v>
   <v>       0.20591355       0.37744520       0.04994979 </v>
   <v>       0.70287714       0.12570295       0.54998423 </v>
   <v>       0.89292621       0.92424606       0.55022063 </v>
   <v>       0.90731772       0.42597673       0.54999907 </v>
   <v>       0.69148052       0.62469280       0.55023884 </v>
   <v>       0.19977377       0.87416907       0.05025729 </v>
   <v>       0.00743780       0.07667461       0.05004901 </v>
   <v>       0.30595366       0.02577403       0.55010845 </v>
   <v>       0.60045645       0.47605539       0.05006682 </v>
   <v>       0.59434743       0.97278286       0.05015587 </v>
   <v>       0.30083885       0.52526130       0.55013406 </v>
   <v>       0.49936280       0.82496616       0.55026966 </v>
   <v>       0.40012060       0.17510622       0.04996437 </v>
  </varray>
 </structure>
</modeling>
