unknown system                          
           1
     6.299832   -0.677060    0.005254
    -0.938151    9.635935    0.017743
    -0.004329   -0.008124    4.183126
   V    Fe
  17   3
Direct configuration=     1
   0.09740823  0.22452010  0.54991422
   0.10872376  0.72553439  0.55030310
   0.49431097  0.32444199  0.54993097
   0.40010262  0.67511535  0.05027254
   0.80208469  0.77467561  0.05032082
   0.79284123  0.27354805  0.04991003
   0.99812199  0.57555212  0.05019122
   0.20591355  0.37744520  0.04994979
   0.70287714  0.12570295  0.54998423
   0.89292621  0.92424606  0.55022063
   0.90731772  0.42597673  0.54999907
   0.69148052  0.62469280  0.55023884
   0.19977377  0.87416907  0.05025729
   0.00743780  0.07667461  0.05004901
   0.30595366  0.02577403  0.55010845
   0.60045645  0.47605539  0.05006682
   0.59434743  0.97278286  0.05015587
   0.30083885  0.52526130  0.55013406
   0.49936280  0.82496616  0.55026966
   0.40012060  0.17510622  0.04996437
