  30  30   0   0
  0.1037211E+02  0.5106831E-09  0.5106831E-09  0.1377701E-08  0.5000000E-15
  1.000000000000000E-004
  CAR 
 unknown system                          
      7.39600574    -16.95894726  301      5.19981154      1.00000000
    -16.959  0.0000E+00  0.0000E+00
    -16.878  0.0000E+00  0.0000E+00
    -16.797  0.0000E+00  0.0000E+00
    -16.715  0.0000E+00  0.0000E+00
    -16.634  0.0000E+00  0.0000E+00
    -16.553  0.0000E+00  0.0000E+00
    -16.472  0.0000E+00  0.0000E+00
    -16.391  0.0000E+00  0.0000E+00
    -16.309  0.0000E+00  0.0000E+00
    -16.228  0.0000E+00  0.0000E+00
    -16.147  0.1688E-18  0.1371E-19
    -16.066  0.2159E-11  0.1753E-12
    -15.985  0.2694E-06  0.2187E-07
    -15.904  0.3007E-03  0.2443E-04
    -15.822  0.9089E-02  0.7623E-03
    -15.741  0.2072E-01  0.2444E-02
    -15.660  0.3377E-01  0.5186E-02
    -15.579  0.4943E-01  0.9199E-02
    -15.498  0.5509E-01  0.1367E-01
    -15.416  0.6099E-01  0.1862E-01
    -15.335  0.8787E-01  0.2576E-01
    -15.254  0.1197E+00  0.3547E-01
    -15.173  0.1608E+00  0.4853E-01
    -15.092  0.1265E+00  0.5880E-01
    -15.011  0.1578E+00  0.7161E-01
    -14.929  0.2268E+00  0.9002E-01
    -14.848  0.2757E+00  0.1124E+00
    -14.767  0.5799E+00  0.1595E+00
    -14.686  0.6742E+00  0.2142E+00
    -14.605  0.6757E+00  0.2691E+00
    -14.523  0.7242E+00  0.3279E+00
    -14.442  0.3537E+00  0.3566E+00
    -14.361  0.4166E-01  0.3599E+00
    -14.280  0.6210E-03  0.3600E+00
    -14.199  0.2273E-06  0.3600E+00
    -14.118  0.7251E-12  0.3600E+00
    -14.036  0.0000E+00  0.3600E+00
    -13.955  0.0000E+00  0.3600E+00
    -13.874  0.0000E+00  0.3600E+00
    -13.793  0.0000E+00  0.3600E+00
    -13.712  0.0000E+00  0.3600E+00
    -13.630  0.0000E+00  0.3600E+00
    -13.549  0.0000E+00  0.3600E+00
    -13.468  0.0000E+00  0.3600E+00
    -13.387  0.0000E+00  0.3600E+00
    -13.306  0.0000E+00  0.3600E+00
    -13.225  0.0000E+00  0.3600E+00
    -13.143  0.0000E+00  0.3600E+00
    -13.062  0.0000E+00  0.3600E+00
    -12.981  0.0000E+00  0.3600E+00
    -12.900  0.0000E+00  0.3600E+00
    -12.819  0.0000E+00  0.3600E+00
    -12.737  0.0000E+00  0.3600E+00
    -12.656  0.0000E+00  0.3600E+00
    -12.575  0.0000E+00  0.3600E+00
    -12.494  0.0000E+00  0.3600E+00
    -12.413  0.0000E+00  0.3600E+00
    -12.332  0.0000E+00  0.3600E+00
    -12.250  0.0000E+00  0.3600E+00
    -12.169  0.0000E+00  0.3600E+00
    -12.088  0.0000E+00  0.3600E+00
    -12.007  0.0000E+00  0.3600E+00
    -11.926  0.0000E+00  0.3600E+00
    -11.844  0.0000E+00  0.3600E+00
    -11.763  0.0000E+00  0.3600E+00
    -11.682  0.0000E+00  0.3600E+00
    -11.601  0.0000E+00  0.3600E+00
    -11.520  0.0000E+00  0.3600E+00
    -11.438  0.0000E+00  0.3600E+00
    -11.357  0.0000E+00  0.3600E+00
    -11.276  0.0000E+00  0.3600E+00
    -11.195  0.0000E+00  0.3600E+00
    -11.114  0.0000E+00  0.3600E+00
    -11.033  0.0000E+00  0.3600E+00
    -10.951  0.0000E+00  0.3600E+00
    -10.870  0.0000E+00  0.3600E+00
    -10.789  0.0000E+00  0.3600E+00
    -10.708  0.0000E+00  0.3600E+00
    -10.627  0.0000E+00  0.3600E+00
    -10.545  0.0000E+00  0.3600E+00
    -10.464  0.0000E+00  0.3600E+00
    -10.383  0.0000E+00  0.3600E+00
    -10.302  0.0000E+00  0.3600E+00
    -10.221  0.0000E+00  0.3600E+00
    -10.140  0.0000E+00  0.3600E+00
    -10.058  0.0000E+00  0.3600E+00
     -9.977  0.0000E+00  0.3600E+00
     -9.896  0.0000E+00  0.3600E+00
     -9.815  0.0000E+00  0.3600E+00
     -9.734  0.0000E+00  0.3600E+00
     -9.652  0.0000E+00  0.3600E+00
     -9.571  0.0000E+00  0.3600E+00
     -9.490  0.0000E+00  0.3600E+00
     -9.409  0.0000E+00  0.3600E+00
     -9.328  0.0000E+00  0.3600E+00
     -9.247  0.0000E+00  0.3600E+00
     -9.165  0.0000E+00  0.3600E+00
     -9.084  0.0000E+00  0.3600E+00
     -9.003  0.0000E+00  0.3600E+00
     -8.922  0.0000E+00  0.3600E+00
     -8.841  0.0000E+00  0.3600E+00
     -8.759  0.0000E+00  0.3600E+00
     -8.678  0.0000E+00  0.3600E+00
     -8.597  0.0000E+00  0.3600E+00
     -8.516  0.0000E+00  0.3600E+00
     -8.435  0.0000E+00  0.3600E+00
     -8.354  0.0000E+00  0.3600E+00
     -8.272  0.0000E+00  0.3600E+00
     -8.191  0.0000E+00  0.3600E+00
     -8.110  0.0000E+00  0.3600E+00
     -8.029  0.0000E+00  0.3600E+00
     -7.948  0.0000E+00  0.3600E+00
     -7.866  0.0000E+00  0.3600E+00
     -7.785  0.0000E+00  0.3600E+00
     -7.704  0.0000E+00  0.3600E+00
     -7.623  0.0000E+00  0.3600E+00
     -7.542  0.0000E+00  0.3600E+00
     -7.461  0.0000E+00  0.3600E+00
     -7.379  0.0000E+00  0.3600E+00
     -7.298  0.0000E+00  0.3600E+00
     -7.217  0.0000E+00  0.3600E+00
     -7.136  0.0000E+00  0.3600E+00
     -7.055  0.0000E+00  0.3600E+00
     -6.973  0.0000E+00  0.3600E+00
     -6.892  0.0000E+00  0.3600E+00
     -6.811  0.0000E+00  0.3600E+00
     -6.730  0.0000E+00  0.3600E+00
     -6.649  0.0000E+00  0.3600E+00
     -6.568  0.0000E+00  0.3600E+00
     -6.486  0.0000E+00  0.3600E+00
     -6.405  0.0000E+00  0.3600E+00
     -6.324  0.0000E+00  0.3600E+00
     -6.243  0.0000E+00  0.3600E+00
     -6.162  0.0000E+00  0.3600E+00
     -6.080  0.0000E+00  0.3600E+00
     -5.999  0.0000E+00  0.3600E+00
     -5.918  0.0000E+00  0.3600E+00
     -5.837  0.0000E+00  0.3600E+00
     -5.756  0.0000E+00  0.3600E+00
     -5.674  0.0000E+00  0.3600E+00
     -5.593  0.0000E+00  0.3600E+00
     -5.512  0.0000E+00  0.3600E+00
     -5.431  0.0000E+00  0.3600E+00
     -5.350  0.0000E+00  0.3600E+00
     -5.269  0.0000E+00  0.3600E+00
     -5.187  0.0000E+00  0.3600E+00
     -5.106  0.0000E+00  0.3600E+00
     -5.025  0.0000E+00  0.3600E+00
     -4.944  0.0000E+00  0.3600E+00
     -4.863  0.0000E+00  0.3600E+00
     -4.781  0.0000E+00  0.3600E+00
     -4.700  0.0000E+00  0.3600E+00
     -4.619  0.0000E+00  0.3600E+00
     -4.538  0.0000E+00  0.3600E+00
     -4.457  0.0000E+00  0.3600E+00
     -4.376  0.0000E+00  0.3600E+00
     -4.294  0.0000E+00  0.3600E+00
     -4.213  0.0000E+00  0.3600E+00
     -4.132  0.0000E+00  0.3600E+00
     -4.051  0.0000E+00  0.3600E+00
     -3.970  0.0000E+00  0.3600E+00
     -3.888  0.0000E+00  0.3600E+00
     -3.807  0.0000E+00  0.3600E+00
     -3.726  0.0000E+00  0.3600E+00
     -3.645  0.0000E+00  0.3600E+00
     -3.564  0.0000E+00  0.3600E+00
     -3.483  0.0000E+00  0.3600E+00
     -3.401  0.0000E+00  0.3600E+00
     -3.320  0.0000E+00  0.3600E+00
     -3.239  0.0000E+00  0.3600E+00
     -3.158  0.1876E-12  0.3600E+00
     -3.077  0.5398E-07  0.3600E+00
     -2.995  0.1223E-03  0.3600E+00
     -2.914  0.6500E-02  0.3605E+00
     -2.833  0.3117E-01  0.3631E+00
     -2.752  0.7778E-01  0.3694E+00
     -2.671  0.1299E+00  0.3799E+00
     -2.590  0.1859E+00  0.3950E+00
     -2.508  0.4026E+00  0.4277E+00
     -2.427  0.3764E+00  0.4583E+00
     -2.346  0.2655E+00  0.4798E+00
     -2.265  0.2604E+00  0.5010E+00
     -2.184  0.2320E+00  0.5198E+00
     -2.102  0.2259E+00  0.5381E+00
     -2.021  0.2352E+00  0.5572E+00
     -1.940  0.3296E+00  0.5840E+00
     -1.859  0.3649E+00  0.6136E+00
     -1.778  0.2446E+00  0.6335E+00
     -1.697  0.2800E+00  0.6562E+00
     -1.615  0.3088E+00  0.6813E+00
     -1.534  0.2159E+00  0.6988E+00
     -1.453  0.2480E+00  0.7189E+00
     -1.372  0.2974E+00  0.7431E+00
     -1.291  0.3112E+00  0.7683E+00
     -1.209  0.3005E+00  0.7927E+00
     -1.128  0.4060E+00  0.8257E+00
     -1.047  0.4146E+00  0.8593E+00
     -0.966  0.4146E+00  0.8930E+00
     -0.885  0.2732E+00  0.9152E+00
     -0.803  0.2622E+00  0.9365E+00
     -0.722  0.2558E+00  0.9572E+00
     -0.641  0.2241E+00  0.9754E+00
     -0.560  0.2091E+00  0.9924E+00
     -0.479  0.2360E+00  0.1012E+01
     -0.398  0.1837E+00  0.1026E+01
     -0.316  0.1829E+00  0.1041E+01
     -0.235  0.2401E+00  0.1061E+01
     -0.154  0.1637E+00  0.1074E+01
     -0.073  0.1296E+00  0.1085E+01
      0.008  0.2753E+00  0.1107E+01
      0.090  0.2504E+00  0.1127E+01
      0.171  0.2392E+00  0.1147E+01
      0.252  0.3468E+00  0.1175E+01
      0.333  0.3119E+00  0.1200E+01
      0.414  0.3643E+00  0.1230E+01
      0.495  0.2912E+00  0.1253E+01
      0.577  0.3001E+00  0.1278E+01
      0.658  0.2843E+00  0.1301E+01
      0.739  0.2859E+00  0.1324E+01
      0.820  0.1988E+00  0.1340E+01
      0.901  0.2202E+00  0.1358E+01
      0.983  0.2500E+00  0.1378E+01
      1.064  0.3539E+00  0.1407E+01
      1.145  0.2831E+00  0.1430E+01
      1.226  0.7946E-01  0.1437E+01
      1.307  0.3591E-01  0.1439E+01
      1.388  0.6568E-02  0.1440E+01
      1.470  0.4731E-04  0.1440E+01
      1.551  0.3119E-08  0.1440E+01
      1.632  0.1329E-14  0.1440E+01
      1.713  0.0000E+00  0.1440E+01
      1.794  0.0000E+00  0.1440E+01
      1.876  0.0000E+00  0.1440E+01
      1.957  0.0000E+00  0.1440E+01
      2.038  0.0000E+00  0.1440E+01
      2.119  0.0000E+00  0.1440E+01
      2.200  0.0000E+00  0.1440E+01
      2.281  0.0000E+00  0.1440E+01
      2.363  0.0000E+00  0.1440E+01
      2.444  0.0000E+00  0.1440E+01
      2.525  0.0000E+00  0.1440E+01
      2.606  0.0000E+00  0.1440E+01
      2.687  0.0000E+00  0.1440E+01
      2.769  0.0000E+00  0.1440E+01
      2.850  0.0000E+00  0.1440E+01
      2.931  0.0000E+00  0.1440E+01
      3.012  0.0000E+00  0.1440E+01
      3.093  0.0000E+00  0.1440E+01
      3.174  0.0000E+00  0.1440E+01
      3.256  0.0000E+00  0.1440E+01
      3.337  0.0000E+00  0.1440E+01
      3.418  0.0000E+00  0.1440E+01
      3.499  0.0000E+00  0.1440E+01
      3.580  0.0000E+00  0.1440E+01
      3.662  0.0000E+00  0.1440E+01
      3.743  0.0000E+00  0.1440E+01
      3.824  0.0000E+00  0.1440E+01
      3.905  0.0000E+00  0.1440E+01
      3.986  0.0000E+00  0.1440E+01
      4.067  0.4276E-11  0.1440E+01
      4.149  0.9352E-06  0.1440E+01
      4.230  0.1584E-02  0.1440E+01
      4.311  0.4194E-01  0.1444E+01
      4.392  0.1363E+00  0.1455E+01
      4.473  0.2655E+00  0.1476E+01
      4.555  0.2452E+00  0.1496E+01
      4.636  0.2061E+00  0.1513E+01
      4.717  0.1441E+00  0.1524E+01
      4.798  0.1107E+00  0.1533E+01
      4.879  0.9889E-01  0.1541E+01
      4.961  0.6520E-01  0.1547E+01
      5.042  0.4150E-01  0.1550E+01
      5.123  0.5501E-01  0.1555E+01
      5.204  0.7154E-01  0.1560E+01
      5.285  0.2113E+00  0.1578E+01
      5.366  0.3511E+00  0.1606E+01
      5.448  0.3305E+00  0.1633E+01
      5.529  0.3143E+00  0.1658E+01
      5.610  0.2800E+00  0.1681E+01
      5.691  0.2573E+00  0.1702E+01
      5.772  0.4390E+00  0.1738E+01
      5.854  0.5246E+00  0.1780E+01
      5.935  0.3533E+00  0.1809E+01
      6.016  0.2544E+00  0.1830E+01
      6.097  0.2666E+00  0.1851E+01
      6.178  0.3822E+00  0.1882E+01
      6.259  0.3574E+00  0.1911E+01
      6.341  0.1038E+00  0.1920E+01
      6.422  0.3424E-02  0.1920E+01
      6.503  0.2533E-05  0.1920E+01
      6.584  0.1639E-10  0.1920E+01
      6.665  0.0000E+00  0.1920E+01
      6.747  0.0000E+00  0.1920E+01
      6.828  0.0000E+00  0.1920E+01
      6.909  0.0000E+00  0.1920E+01
      6.990  0.0000E+00  0.1920E+01
      7.071  0.0000E+00  0.1920E+01
      7.152  0.0000E+00  0.1920E+01
      7.234  0.0000E+00  0.1920E+01
      7.315  0.0000E+00  0.1920E+01
      7.396  0.0000E+00  0.1920E+01
