 vasp.5.4.4.18Apr17-6-g9f103f2a35 (build Jul 11 2019 11:52:51) complex          
  
 executed on             LinuxIFC date 2024.08.29  19:22:18
 running on   16 total cores
 distrk:  each k-point on   16 cores,    1 groups
 distr:  one band on NCORES_PER_BAND=   1 cores,   16 groups


--------------------------------------------------------------------------------------------------------


 INCAR:
 POTCAR:    PAW_PBE Ti 08Apr2002                  
 POTCAR:    PAW_PBE O 08Apr2002                   

 ----------------------------------------------------------------------------- 
|                                                                             |
|           W    W    AA    RRRRR   N    N  II  N    N   GGGG   !!!           |
|           W    W   A  A   R    R  NN   N  II  NN   N  G    G  !!!           |
|           W    W  A    A  R    R  N N  N  II  N N  N  G       !!!           |
|           W WW W  AAAAAA  RRRRR   N  N N  II  N  N N  G  GGG   !            |
|           WW  WW  A    A  R   R   N   NN  II  N   NN  G    G                |
|           W    W  A    A  R    R  N    N  II  N    N   GGGG   !!!           |
|                                                                             |
|      For optimal performance we recommend to set                            |
|        NCORE= 4 - approx SQRT( number of cores)                             |
|      NCORE specifies how many cores store one orbital (NPAR=cpu/NCORE).     |
|      This setting can  greatly improve the performance of VASP for DFT.     |
|      The default,   NCORE=1            might be grossly inefficient         |
|      on modern multi-core architectures or massively parallel machines.     |
|      Do your own testing !!!!                                               |
|      Unfortunately you need to use the default for GW and RPA calculations. |
|      (for HF NCORE is supported but not extensively tested yet)             |
|                                                                             |
 ----------------------------------------------------------------------------- 

 POTCAR:    PAW_PBE Ti 08Apr2002                  
   VRHFIN =Ti: d3 s1                                                            
   LEXCH  = PE                                                                  
   EATOM  =    94.7928 eV,    6.9671 Ry                                         
                                                                                
   TITEL  = PAW_PBE Ti 08Apr2002                                                
   LULTRA =        F    use ultrasoft PP ?                                      
   IUNSCR =        1    unscreen: 0-lin 1-nonlin 2-no                           
   RPACOR =    2.200    partial core radius                                     
   POMASS =   47.880; ZVAL   =    4.000    mass and valenz                      
   RCORE  =    2.800    outmost cutoff radius                                   
   RWIGS  =    2.500; RWIGS  =    1.323    wigner-seitz radius (au A)           
   ENMAX  =  178.330; ENMIN  =  133.747 eV                                      
   RCLOC  =    2.215    cutoff for local pot                                    
   LCOR   =        T    correct aug charges                                     
   LPAW   =        T    paw PP                                                  
   EAUG   =  328.883                                                            
   DEXC   =    0.000                                                            
   RMAX   =    2.868    core radius for proj-oper                               
   RAUG   =    1.300    factor for augmentation sphere                          
   RDEP   =    2.885    radius for radial grids                                 
   RDEPT  =    2.320    core radius for aug-charge                              
                                                                                
   Atomic configuration                                                         
    9 entries                                                                   
     n  l   j            E        occ.                                          
     1  0  0.50     -4865.3608   2.0000                                         
     2  0  0.50      -533.1367   2.0000                                         
     2  1  1.50      -440.5031   6.0000                                         
     3  0  0.50       -59.3186   2.0000                                         
     3  1  1.50       -35.7012   6.0000                                         
     3  2  2.50        -1.9157   3.0000                                         
     4  0  0.50        -3.7291   1.0000                                         
     4  1  1.50        -4.0817   0.0000                                         
     4  3  2.50        -1.3606   0.0000                                         
   Description                                                                  
     l       E           TYP  RCUT    TYP  RCUT                                 
     2     -1.9156924     23  2.800                                             
     2     -0.4062961     23  2.800                                             
     0     -3.7290832     23  2.800                                             
     0     20.4087390     23  2.800                                             
     1     -5.4423304     23  2.800                                             
  local pseudopotential read in
  partial core-charges read in
  partial kinetic energy density read in
  atomic valenz-charges read in
  non local Contribution for L=           2  read in
    real space projection operators read in
  non local Contribution for L=           2  read in
    real space projection operators read in
  non local Contribution for L=           0  read in
    real space projection operators read in
  non local Contribution for L=           0  read in
    real space projection operators read in
  non local Contribution for L=           1  read in
    real space projection operators read in
    PAW grid and wavefunctions read in
 
   number of l-projection  operators is LMAX  =           5
   number of lm-projection operators is LMMAX =          15
 
 POTCAR:    PAW_PBE O 08Apr2002                   
   VRHFIN =O: s2p4                                                              
   LEXCH  = PE                                                                  
   EATOM  =   432.3788 eV,   31.7789 Ry                                         
                                                                                
   TITEL  = PAW_PBE O 08Apr2002                                                 
   LULTRA =        F    use ultrasoft PP ?                                      
   IUNSCR =        1    unscreen: 0-lin 1-nonlin 2-no                           
   RPACOR =    1.200    partial core radius                                     
   POMASS =   16.000; ZVAL   =    6.000    mass and valenz                      
   RCORE  =    1.520    outmost cutoff radius                                   
   RWIGS  =    1.550; RWIGS  =    0.820    wigner-seitz radius (au A)           
   ENMAX  =  400.000; ENMIN  =  300.000 eV                                      
   ICORE  =        2    local potential                                         
   LCOR   =        T    correct aug charges                                     
   LPAW   =        T    paw PP                                                  
   EAUG   =  605.392                                                            
   DEXC   =    0.000                                                            
   RMAX   =    1.553    core radius for proj-oper                               
   RAUG   =    1.300    factor for augmentation sphere                          
   RDEP   =    1.550    radius for radial grids                                 
   RDEPT  =    1.329    core radius for aug-charge                              
                                                                                
   Atomic configuration                                                         
    4 entries                                                                   
     n  l   j            E        occ.                                          
     1  0  0.50      -514.6923   2.0000                                         
     2  0  0.50       -23.9615   2.0000                                         
     2  1  0.50        -9.0305   4.0000                                         
     3  2  1.50        -9.5241   0.0000                                         
   Description                                                                  
     l       E           TYP  RCUT    TYP  RCUT                                 
     0    -23.9615318     23  1.200                                             
     0     -9.5240782     23  1.200                                             
     1     -9.0304911     23  1.520                                             
     1      8.1634956     23  1.520                                             
     2     -9.5240782      7  1.500                                             
  local pseudopotential read in
  partial core-charges read in
  partial kinetic energy density read in
  kinetic energy density of atom read in
  atomic valenz-charges read in
  non local Contribution for L=           0  read in
    real space projection operators read in
  non local Contribution for L=           0  read in
    real space projection operators read in
  non local Contribution for L=           1  read in
    real space projection operators read in
  non local Contribution for L=           1  read in
    real space projection operators read in
    PAW grid and wavefunctions read in
 
   number of l-projection  operators is LMAX  =           4
   number of lm-projection operators is LMMAX =           8
 

 ----------------------------------------------------------------------------- 
|                                                                             |
|  ADVICE TO THIS USER RUNNING 'VASP/VAMP'   (HEAR YOUR MASTER'S VOICE ...):  |
|                                                                             |
|      You have a (more or less) 'large supercell' and for larger cells       |
|      it might be more efficient to use real space projection opertators     |
|      So try LREAL= Auto  in the INCAR   file.                               |
|      Mind:          For very  accurate calculation you might also keep the  |
|      reciprocal projection scheme          (i.e. LREAL=.FALSE.)             |
|                                                                             |
 ----------------------------------------------------------------------------- 

  PAW_PBE Ti 08Apr2002                  :
 energy of atom  1       EATOM=  -94.7928
 kinetic energy error for atom=    0.0005 (will be added to EATOM!!)
  PAW_PBE O 08Apr2002                   :
 energy of atom  2       EATOM= -432.3788
 kinetic energy error for atom=    0.1156 (will be added to EATOM!!)
 
 
 POSCAR: Ti12 O18                                
  positions in direct lattice
  No initial velocities read in
 exchange correlation table for  LEXCH =        8
   RHO(1)=    0.500       N(1)  =     2000
   RHO(2)=  100.500       N(2)  =     4000
 


--------------------------------------------------------------------------------------------------------


 ion  position               nearest neighbor table
   1  0.333  0.667  0.011-  16 2.01  17 2.01  18 2.01  25 2.07  27 2.07  26 2.07  10 2.60  11 2.96
                            11 2.96  11 2.96
   2  0.000  0.000  0.155-  16 2.01  17 2.01  18 2.01  14 2.07  13 2.07  15 2.07   5 2.60   4 2.96
                             4 2.96   4 2.96
   3  0.333  0.667  0.322-  15 2.01  14 2.01  13 2.01  23 2.07  24 2.07  22 2.07   8 2.60   5 2.96
                             5 2.96   5 2.96
   4  0.667  0.333  0.178-  15 2.01  13 2.01  14 2.01  16 2.07  18 2.07  17 2.07  11 2.60   2 2.96
                             2 2.96   2 2.96
   5  0.000  0.000  0.345-  22 2.01  23 2.01  24 2.01  14 2.07  13 2.07  15 2.07   2 2.60   3 2.96
                             3 2.96   3 2.96
   6  0.667  0.333  0.489-  23 2.01  22 2.01  24 2.01  20 2.07  21 2.07  19 2.07   9 2.60   8 2.96
                             8 2.96   8 2.96
   7  0.000  0.000  0.655-  19 2.01  20 2.01  21 2.01  28 2.07  29 2.07  30 2.07  12 2.60   9 2.96
                             9 2.96   9 2.96
   8  0.333  0.667  0.511-  20 2.01  19 2.01  21 2.01  23 2.07  24 2.07  22 2.07   3 2.60   6 2.96
                             6 2.96   6 2.96
   9  0.667  0.333  0.678-  30 2.01  29 2.01  28 2.01  20 2.07  21 2.07  19 2.07   6 2.60   7 2.96
                             7 2.96   7 2.96
  10  0.333  0.667  0.822-  30 2.01  28 2.01  29 2.01  25 2.07  27 2.07  26 2.07   1 2.60  12 2.96
                            12 2.96  12 2.96
  11  0.667  0.333  0.989-  25 2.01  26 2.01  27 2.01  16 2.07  18 2.07  17 2.07   4 2.60   1 2.96
                             1 2.96   1 2.96
  12  0.000  0.000  0.845-  25 2.01  26 2.01  27 2.01  28 2.07  29 2.07  30 2.07   7 2.60  10 2.96
                            10 2.96  10 2.96
  13  0.314  0.000  0.250-   4 2.01   3 2.01   2 2.07   5 2.07
  14  0.000  0.314  0.250-   3 2.01   4 2.01   2 2.07   5 2.07
  15  0.686  0.686  0.250-   3 2.01   4 2.01   2 2.07   5 2.07
  16  0.352  0.333  0.083-   1 2.01   2 2.01   4 2.07  11 2.07
  17  0.667  0.019  0.083-   1 2.01   2 2.01   4 2.07  11 2.07
  18  0.981  0.648  0.083-   1 2.01   2 2.01   4 2.07  11 2.07
  19  0.981  0.333  0.583-   8 2.01   7 2.01   9 2.07   6 2.07
  20  0.667  0.648  0.583-   8 2.01   7 2.01   9 2.07   6 2.07
  21  0.352  0.019  0.583-   7 2.01   8 2.01   9 2.07   6 2.07
  22  0.019  0.667  0.417-   6 2.01   5 2.01   3 2.07   8 2.07
  23  0.333  0.352  0.417-   6 2.01   5 2.01   3 2.07   8 2.07
  24  0.648  0.981  0.417-   5 2.01   6 2.01   3 2.07   8 2.07
  25  0.648  0.667  0.917-  11 2.01  12 2.01  10 2.07   1 2.07
  26  0.333  0.981  0.917-  11 2.01  12 2.01  10 2.07   1 2.07
  27  0.019  0.352  0.917-  11 2.01  12 2.01  10 2.07   1 2.07
  28  0.686  0.000  0.750-  10 2.01   9 2.01   7 2.07  12 2.07
  29  0.000  0.686  0.750-   9 2.01  10 2.01   7 2.07  12 2.07
  30  0.314  0.314  0.750-   9 2.01  10 2.01   7 2.07  12 2.07
 
  LATTYP: Found a hexagonal cell.
 ALAT       =     5.1068306418
 C/A-ratio  =     2.6977611201
  
  Lattice vectors:
  
 A1 = (   2.5534153209,  -4.4226450686,   0.0000000000)
 A2 = (   2.5534153209,   4.4226450686,   0.0000000000)
 A3 = (   0.0000000000,   0.0000000000,  13.7770091525)


Analysis of symmetry for initial positions (statically):
=====================================================================
 Subroutine PRICEL returns following result:
 
  LATTYP: Found a trigonal (rhomboedric) cell.
 ALAT       =     5.4573613771
 COS(alpha) =     0.5621680104
  
  Lattice vectors:
  
 A1 = (  -2.5534153209,   1.4742150229,  -4.5923363842)
 A2 = (   2.5534153209,   1.4742150229,  -4.5923363842)
 A3 = (   0.0000000000,  -2.9484300457,  -4.5923363842)
 
   3 primitive cells build up your supercell.
 

 Routine SETGRP: Setting up the symmetry group for a 
 hexagonal supercell.


 Subroutine GETGRP returns: Found 12 space group operations
 (whereof  6 operations were pure point group operations)
 out of a pool of 24 trial point group operations.


The static configuration has the point symmetry S_6 .
 The point group associated with its full space group is D_3d.


Analysis of symmetry for dynamics (positions and initial velocities):
=====================================================================
 Subroutine PRICEL returns following result:
 
  LATTYP: Found a trigonal (rhomboedric) cell.
 ALAT       =     5.4573613771
 COS(alpha) =     0.5621680104
  
  Lattice vectors:
  
 A1 = (  -2.5534153209,   1.4742150229,  -4.5923363842)
 A2 = (   2.5534153209,   1.4742150229,  -4.5923363842)
 A3 = (   0.0000000000,  -2.9484300457,  -4.5923363842)
 
   3 primitive cells build up your supercell.
 

 Routine SETGRP: Setting up the symmetry group for a 
 hexagonal supercell.


 Subroutine GETGRP returns: Found 12 space group operations
 (whereof  6 operations were pure point group operations)
 out of a pool of 24 trial point group operations.


The dynamic configuration has the point symmetry S_6 .
 The point group associated with its full space group is D_3d.


 Subroutine INISYM returns: Found 12 space group operations
 (whereof  6 operations are pure point group operations),
 and found     3 'primitive' translations

 
 
 KPOINTS: K-Spacing Value to Generate K-Mesh: 0.03

Automatic generation of k-mesh.
Space group operators:
 irot       det(A)        alpha          n_x          n_y          n_z        tau_x        tau_y        tau_z
    1     1.000000     0.000001     1.000000     0.000000     0.000000     0.000000     0.000000     0.000000
    2    -1.000000     0.000001     1.000000     0.000000     0.000000     0.000000     0.000000     0.000000
    3     1.000000   120.000000     0.000000     0.000000    -1.000000     0.000000     0.000000     0.000000
    4    -1.000000   120.000000     0.000000     0.000000    -1.000000     0.000000     0.000000     0.000000
    5     1.000000   120.000000     0.000000     0.000000     1.000000     0.000000     0.000000     0.000000
    6    -1.000000   120.000000     0.000000     0.000000     1.000000     0.000000     0.000000     0.000000
    7     1.000000   180.000000     0.500000    -0.866025     0.000000    -0.000000     0.000000    -0.500000
    8    -1.000000   180.000000     0.500000    -0.866025     0.000000    -0.000000     0.000000    -0.500000
    9     1.000000   180.000000    -0.500000    -0.866025     0.000000    -0.000000     0.000000    -0.500000
   10    -1.000000   180.000000    -0.500000    -0.866025     0.000000    -0.000000     0.000000    -0.500000
   11     1.000000   179.999999     1.000000     0.000000     0.000000    -0.000000     0.000000    -0.500000
   12    -1.000000   179.999999     1.000000     0.000000     0.000000    -0.000000     0.000000    -0.500000
 
 Subroutine IBZKPT returns following result:
 ===========================================
 
 Found     19 irreducible k-points:
 
 Following reciprocal coordinates:
            Coordinates               Weight
  0.000000  0.000000  0.250000      2.000000
  0.111111  0.000000  0.250000      6.000000
  0.222222  0.000000  0.250000      6.000000
  0.333333  0.000000  0.250000      6.000000
  0.444444  0.000000  0.250000      6.000000
 -0.444444 -0.000000  0.250000      6.000000
 -0.333333 -0.000000  0.250000      6.000000
 -0.222222 -0.000000  0.250000      6.000000
 -0.111111 -0.000000  0.250000      6.000000
  0.111111  0.111111  0.250000     12.000000
  0.222222  0.111111  0.250000     12.000000
  0.333333  0.111111  0.250000     12.000000
  0.444444  0.111111  0.250000     12.000000
 -0.444444  0.111111  0.250000     12.000000
 -0.333333  0.111111  0.250000     12.000000
  0.222222  0.222222  0.250000     12.000000
  0.333333  0.222222  0.250000     12.000000
  0.444444  0.222222  0.250000     12.000000
  0.333333  0.333333  0.250000      4.000000
 
 Following cartesian coordinates:
            Coordinates               Weight
  0.000000  0.000000  0.018146      2.000000
  0.021757 -0.012562  0.018146      6.000000
  0.043515 -0.025123  0.018146      6.000000
  0.065272 -0.037685  0.018146      6.000000
  0.087029 -0.050246  0.018146      6.000000
 -0.087029  0.050246  0.018146      6.000000
 -0.065272  0.037685  0.018146      6.000000
 -0.043515  0.025123  0.018146      6.000000
 -0.021757  0.012562  0.018146      6.000000
  0.043515  0.000000  0.018146     12.000000
  0.065272 -0.012562  0.018146     12.000000
  0.087029 -0.025123  0.018146     12.000000
  0.108787 -0.037685  0.018146     12.000000
 -0.065272  0.062808  0.018146     12.000000
 -0.043515  0.050246  0.018146     12.000000
  0.087029  0.000000  0.018146     12.000000
  0.108787 -0.012562  0.018146     12.000000
  0.130544 -0.025123  0.018146     12.000000
  0.130544  0.000000  0.018146      4.000000
 


--------------------------------------------------------------------------------------------------------




 Dimension of arrays:
   k-points           NKPTS =     19   k-points in BZ     NKDIM =     19   number of bands    NBANDS=     96
   number of dos      NEDOS =    301   number of ions     NIONS =     30
   non local maximal  LDIM  =      5   non local SUM 2l+1 LMDIM =     15
   total plane-waves  NPLWV = 116640
   max r-space proj   IRMAX =      1   max aug-charges    IRDMAX=  26086
   dimension x,y,z NGX =    36 NGY =   36 NGZ =   90
   dimension x,y,z NGXF=    72 NGYF=   72 NGZF=  180
   support grid    NGXF=    72 NGYF=   72 NGZF=  180
   ions per type =              12  18
   NGX,Y,Z   is equivalent  to a cutoff of  11.72, 11.72, 10.86 a.u.
   NGXF,Y,Z  is equivalent  to a cutoff of  23.44, 23.44, 21.72 a.u.

 SYSTEM =  unknown system                          
 POSCAR =  Ti12 O18                                

 Startparameter for this run:
   NWRITE =      2    write-flag & timer
   PREC   = accura    normal or accurate (medium, high low for compatibility)
   ISTART =      0    job   : 0-new  1-cont  2-samecut
   ICHARG =      2    charge: 1-file 2-atom 10-const
   ISPIN  =      1    spin polarized calculation?
   LNONCOLLINEAR =      F non collinear calculations
   LSORBIT =      F    spin-orbit coupling
   INIWAV =      1    electr: 0-lowe 1-rand  2-diag
   LASPH  =      F    aspherical Exc in radial PAW
   METAGGA=      F    non-selfconsistent MetaGGA calc.

 Electronic Relaxation 1
   ENCUT  =  400.0 eV  29.40 Ry    5.42 a.u.   8.33  8.33 22.47*2*pi/ulx,y,z
   ENINI  =  400.0     initial cutoff
   ENAUG  =  605.4 eV  augmentation charge cutoff
   NELM   =     90;   NELMIN=  6; NELMDL= -5     # of ELM steps 
   EDIFF  = 0.1E-07   stopping-criterion for ELM
   LREAL  =      F    real-space projection
   NLSPLINE    = F    spline interpolate recip. space projectors
   LCOMPAT=      F    compatible to vasp.4.4
   GGA_COMPAT  = T    GGA compatible to vasp.4.4-vasp.4.6
   LMAXPAW     = -100 max onsite density
   LMAXMIX     =    2 max onsite mixed and CHGCAR
   VOSKOWN=      0    Vosko Wilk Nusair interpolation
   ROPT   =    0.00000   0.00000
 Ionic relaxation
   EDIFFG = -.1E-01   stopping-criterion for IOM
   NSW    =    100    number of steps for IOM
   NBLOCK =      1;   KBLOCK =    100    inner block; outer block 
   IBRION =      2    ionic relax: 0-MD 1-quasi-New 2-CG
   NFREE  =      1    steps in history (QN), initial steepest desc. (CG)
   ISIF   =      2    stress and relaxation
   IWAVPR =     11    prediction:  0-non 1-charg 2-wave 3-comb
   ISYM   =      2    0-nonsym 1-usesym 2-fastsym
   LCORR  =      T    Harris-Foulkes like correction to forces

   POTIM  = 0.5000    time-step for ionic-motion
   TEIN   =    0.0    initial temperature
   TEBEG  =    0.0;   TEEND  =   0.0 temperature during run
   SMASS  =  -3.00    Nose mass-parameter (am)
   estimated Nose-frequenzy (Omega)   =  0.10E-29 period in steps =****** mass=  -0.596E-27a.u.
   SCALEE = 1.0000    scale energy and forces
   NPACO  =    256;   APACO  = 16.0  distance and # of slots for P.C.
   PSTRESS=    0.0 pullay stress

  Mass of Ions in am
   POMASS =  47.88 16.00
  Ionic Valenz
   ZVAL   =   4.00  6.00
  Atomic Wigner-Seitz radii
   RWIGS  =  -1.00 -1.00
  virtual crystal weights 
   VCA    =   1.00  1.00
   NELECT =     156.0000    total number of electrons
   NUPDOWN=      -1.0000    fix difference up-down

 DOS related values:
   EMIN   =  10.00;   EMAX   =-10.00  energy-range for DOS
   EFERMI =   0.00
   ISMEAR =     0;   SIGMA  =   0.05  broadening in eV -4-tet -1-fermi 0-gaus

 Electronic relaxation 2 (details)
   IALGO  =     38    algorithm
   LDIAG  =      T    sub-space diagonalisation (order eigenvalues)
   LSUBROT=      F    optimize rotation matrix (better conditioning)
   TURBO    =      0    0=normal 1=particle mesh
   IRESTART =      0    0=no restart 2=restart with 2 vectors
   NREBOOT  =      0    no. of reboots
   NMIN     =      0    reboot dimension
   EREF     =   0.00    reference energy to select bands
   IMIX   =      4    mixing-type and parameters
     AMIX     =   0.40;   BMIX     =  1.00
     AMIX_MAG =   1.60;   BMIX_MAG =  1.00
     AMIN     =   0.10
     WC   =   100.;   INIMIX=   1;  MIXPRE=   1;  MAXMIX= -45

 Intra band minimization:
   WEIMIN = 0.0010     energy-eigenvalue tresh-hold
   EBREAK =  0.26E-10  absolut break condition
   DEPER  =   0.30     relativ break condition  

   TIME   =   0.40     timestep for ELM

  volume/ion in A,a.u.               =      10.37        69.99
  Fermi-wavevector in a.u.,A,eV,Ry     =   1.300529  2.457644 23.012580  1.691377
  Thomas-Fermi vector in A             =   2.431722
 
 Write flags
   LWAVE        =      T    write WAVECAR
   LDOWNSAMPLE  =      F    k-point downsampling of WAVECAR
   LCHARG       =      F    write CHGCAR
   LVTOT        =      F    write LOCPOT, total local potential
   LVHAR        =      F    write LOCPOT, Hartree potential only
   LELF         =      F    write electronic localiz. function (ELF)
   LORBIT       =      0    0 simple, 1 ext, 2 COOP (PROOUT), +10 PAW based schemes


 Dipole corrections
   LMONO  =      F    monopole corrections only (constant potential shift)
   LDIPOL =      F    correct potential (dipole corrections)
   IDIPOL =      0    1-x, 2-y, 3-z, 4-all directions 
   EPSILON=  1.0000000 bulk dielectric constant

 Exchange correlation treatment:
   GGA     =    --    GGA type
   LEXCH   =     8    internal setting for exchange type
   VOSKOWN=      0    Vosko Wilk Nusair interpolation
   LHFCALC =     F    Hartree Fock is set to
   LHFONE  =     F    Hartree Fock one center treatment
   AEXX    =    0.0000 exact exchange contribution

 Linear response parameters
   LEPSILON=     F    determine dielectric tensor
   LRPA    =     F    only Hartree local field effects (RPA)
   LNABLA  =     F    use nabla operator in PAW spheres
   LVEL    =     F    velocity operator in full k-point grid
   LINTERFAST=   F  fast interpolation
   KINTER  =     0    interpolate to denser k-point grid
   CSHIFT  =0.1000    complex shift for real part using Kramers Kronig
   OMEGAMAX=  -1.0    maximum frequency
   DEG_THRESHOLD= 0.2000000E-02 threshold for treating states as degnerate
   RTIME   =   -0.100 relaxation time in fs
  (WPLASMAI=    0.000 imaginary part of plasma frequency in eV, 0.658/RTIME)
   DFIELD  = 0.0000000 0.0000000 0.0000000 field for delta impulse in time
 
 Orbital magnetization related:
   ORBITALMAG=     F  switch on orbital magnetization
   LCHIMAG   =     F  perturbation theory with respect to B field
   DQ        =  0.001000  dq finite difference perturbation B field
   LLRAUG    =     F  two centre corrections for induced B field



--------------------------------------------------------------------------------------------------------


 conjugate gradient relaxation of ions
 charge density and potential will be updated during run
 non-spin polarized calculation
 Variant of blocked Davidson
 Davidson routine will perform the subspace rotation
 perform sub-space diagonalisation
    after iterative eigenvector-optimisation
 modified Broyden-mixing scheme, WC =      100.0
 initial mixing is a Kerker type mixing with AMIX =  0.4000 and BMIX =      1.0000
 Hartree-type preconditioning will be used
 using additional bands           18
 reciprocal scheme for non local part
 use partial core corrections
 calculate Harris-corrections to forces 
   (improved forces if not selfconsistent)
 use gradient corrections 
 use of overlap-Matrix (Vanderbilt PP)
 Gauss-broadening in eV      SIGMA  =   0.05


--------------------------------------------------------------------------------------------------------


  energy-cutoff  :      400.00
  volume of cell :      311.16
      direct lattice vectors                 reciprocal lattice vectors
     2.553415321 -4.422645069  0.000000000     0.195816167 -0.113054517  0.000000000
     2.553415321  4.422645069  0.000000000     0.195816167  0.113054517  0.000000000
     0.000000000  0.000000000 13.777009152     0.000000000  0.000000000  0.072584694

  length of vectors
     5.106830642  5.106830642 13.777009152     0.226109033  0.226109033  0.072584694


 
 k-points in units of 2pi/SCALE and weight: K-Spacing Value to Generate K-Mesh: 0.03
   0.00000000  0.00000000  0.01814617       0.012
   0.02175735 -0.01256161  0.01814617       0.037
   0.04351470 -0.02512323  0.01814617       0.037
   0.06527206 -0.03768484  0.01814617       0.037
   0.08702941 -0.05024645  0.01814617       0.037
  -0.08702941  0.05024645  0.01814617       0.037
  -0.06527206  0.03768484  0.01814617       0.037
  -0.04351470  0.02512323  0.01814617       0.037
  -0.02175735  0.01256161  0.01814617       0.037
   0.04351470  0.00000000  0.01814617       0.074
   0.06527206 -0.01256161  0.01814617       0.074
   0.08702941 -0.02512323  0.01814617       0.074
   0.10878676 -0.03768484  0.01814617       0.074
  -0.06527206  0.06280806  0.01814617       0.074
  -0.04351470  0.05024645  0.01814617       0.074
   0.08702941 -0.00000000  0.01814617       0.074
   0.10878676 -0.01256161  0.01814617       0.074
   0.13054411 -0.02512323  0.01814617       0.074
   0.13054411  0.00000000  0.01814617       0.025
 
 k-points in reciprocal lattice and weights: K-Spacing Value to Generate K-Mesh: 0.03
   0.00000000  0.00000000  0.25000000       0.012
   0.11111111  0.00000000  0.25000000       0.037
   0.22222222  0.00000000  0.25000000       0.037
   0.33333333  0.00000000  0.25000000       0.037
   0.44444444  0.00000000  0.25000000       0.037
  -0.44444444 -0.00000000  0.25000000       0.037
  -0.33333333 -0.00000000  0.25000000       0.037
  -0.22222222 -0.00000000  0.25000000       0.037
  -0.11111111 -0.00000000  0.25000000       0.037
   0.11111111  0.11111111  0.25000000       0.074
   0.22222222  0.11111111  0.25000000       0.074
   0.33333333  0.11111111  0.25000000       0.074
   0.44444444  0.11111111  0.25000000       0.074
  -0.44444444  0.11111111  0.25000000       0.074
  -0.33333333  0.11111111  0.25000000       0.074
   0.22222222  0.22222222  0.25000000       0.074
   0.33333333  0.22222222  0.25000000       0.074
   0.44444444  0.22222222  0.25000000       0.074
   0.33333333  0.33333333  0.25000000       0.025
 
 position of ions in fractional coordinates (direct lattice) 
   0.33333333  0.66666667  0.01120414
   0.00000000  0.00000000  0.15546253
   0.33333333  0.66666667  0.32212920
   0.66666667  0.33333333  0.17787080
   0.00000000  0.00000000  0.34453747
   0.66666667  0.33333333  0.48879586
   0.00000000  0.00000000  0.65546253
   0.33333333  0.66666667  0.51120414
   0.66666667  0.33333333  0.67787080
   0.33333333  0.66666667  0.82212920
   0.66666667  0.33333333  0.98879586
   0.00000000  0.00000000  0.84453747
   0.31439446  0.00000000  0.25000000
   0.00000000  0.31439446  0.25000000
   0.68560554  0.68560554  0.25000000
   0.35227221  0.33333333  0.08333333
   0.66666667  0.01893887  0.08333333
   0.98106113  0.64772779  0.08333333
   0.98106113  0.33333333  0.58333333
   0.66666667  0.64772779  0.58333333
   0.35227221  0.01893887  0.58333333
   0.01893887  0.66666667  0.41666667
   0.33333333  0.35227221  0.41666667
   0.64772779  0.98106113  0.41666667
   0.64772779  0.66666667  0.91666667
   0.33333333  0.98106113  0.91666667
   0.01893887  0.35227221  0.91666667
   0.68560554  0.00000000  0.75000000
   0.00000000  0.68560554  0.75000000
   0.31439446  0.31439446  0.75000000
 
 position of ions in cartesian coordinates  (Angst):
   2.55341532  1.47421502  0.15435949
   0.00000000  0.00000000  2.14180870
   2.55341532  1.47421502  4.43797689
   2.55341532 -1.47421502  2.45052769
   0.00000000  0.00000000  4.74669588
   2.55341532 -1.47421502  6.73414508
   0.00000000  0.00000000  9.03031327
   2.55341532  1.47421502  7.04286407
   2.55341532 -1.47421502  9.33903226
   2.55341532  1.47421502 11.32648147
   2.55341532 -1.47421502 13.62264966
   0.00000000  0.00000000 11.63520045
   0.80277963 -1.39045511  3.44425229
   0.80277963  1.39045511  3.44425229
   3.50127138  0.00000000  3.44425229
   1.75063569 -0.08375991  1.14808410
   1.75063569 -2.86467013  1.14808410
   4.15897458 -1.47421502  1.14808410
   3.35619495 -2.86467013  8.03658867
   3.35619495 -0.08375991  8.03658867
   0.94785606 -1.47421502  8.03658867
   1.75063569  2.86467013  5.74042048
   1.75063569  0.08375991  5.74042048
   4.15897458  1.47421502  5.74042048
   3.35619495  0.08375991 12.62892506
   3.35619495  2.86467013 12.62892506
   0.94785606  1.47421502 12.62892506
   1.75063569 -3.03218996 10.33275686
   1.75063569  3.03218996 10.33275686
   1.60555926 -0.00000000 10.33275686
 


--------------------------------------------------------------------------------------------------------


 k-point  1 :   0.0000 0.0000 0.2500  plane waves:    5667
 k-point  2 :   0.1111 0.0000 0.2500  plane waves:    5674
 k-point  3 :   0.2222 0.0000 0.2500  plane waves:    5662
 k-point  4 :   0.3333 0.0000 0.2500  plane waves:    5642
 k-point  5 :   0.4444 0.0000 0.2500  plane waves:    5653
 k-point  6 :  -0.4444-0.0000 0.2500  plane waves:    5653
 k-point  7 :  -0.3333-0.0000 0.2500  plane waves:    5642
 k-point  8 :  -0.2222-0.0000 0.2500  plane waves:    5662
 k-point  9 :  -0.1111-0.0000 0.2500  plane waves:    5674
 k-point 10 :   0.1111 0.1111 0.2500  plane waves:    5656
 k-point 11 :   0.2222 0.1111 0.2500  plane waves:    5638
 k-point 12 :   0.3333 0.1111 0.2500  plane waves:    5648
 k-point 13 :   0.4444 0.1111 0.2500  plane waves:    5649
 k-point 14 :  -0.4444 0.1111 0.2500  plane waves:    5648
 k-point 15 :  -0.3333 0.1111 0.2500  plane waves:    5638
 k-point 16 :   0.2222 0.2222 0.2500  plane waves:    5651
 k-point 17 :   0.3333 0.2222 0.2500  plane waves:    5649
 k-point 18 :   0.4444 0.2222 0.2500  plane waves:    5649
 k-point 19 :   0.3333 0.3333 0.2500  plane waves:    5643

 maximum and minimum number of plane-waves per node :      5674     5638

 maximum number of plane-waves:      5674
 maximum index in each direction: 
   IXMAX=    8   IYMAX=    8   IZMAX=   22
   IXMIN=   -8   IYMIN=   -8   IZMIN=  -22


 serial   3D FFT for wavefunctions
 parallel 3D FFT for charge:
    minimum data exchange during FFTs selected (reduces bandwidth)


 total amount of memory used by VASP MPI-rank0    80901. kBytes
=======================================================================

   base      :      30000. kBytes
   nonl-proj :      28627. kBytes
   fftplans  :       2634. kBytes
   grid      :       8343. kBytes
   one-center:        324. kBytes
   wavefun   :      10973. kBytes
 
     INWAV:  cpu time    0.0000: real time    0.0000
 Broyden mixing: mesh for mixing (old mesh)
   NGX = 17   NGY = 17   NGZ = 45
  (NGX  = 72   NGY  = 72   NGZ  =180)
  gives a total of  13005 points

 initial charge density was supplied:
 charge density of overlapping atoms calculated
 number of electron     156.0000000 magnetization 
 keeping initial charge density in first step


--------------------------------------------------------------------------------------------------------


 Maximum index for augmentation-charges         2077 (set IRDMAX)


--------------------------------------------------------------------------------------------------------


 First call to EWALD:  gamma=   0.262
 Maximum number of real-space cells 4x 4x 2
 Maximum number of reciprocal cells 2x 2x 5

    FEWALD:  cpu time    0.0022: real time    0.0022


--------------------------------------- Iteration      1(   1)  ---------------------------------------


    POTLOK:  cpu time    0.0289: real time    0.0289
    SETDIJ:  cpu time    0.0055: real time    0.0055
     EDDAV:  cpu time    2.2317: real time    2.2345
       DOS:  cpu time    0.0013: real time    0.0013
    --------------------------------------------
      LOOP:  cpu time    2.2673: real time    2.2702

 eigenvalue-minimisations  :  3648
 total energy-change (2. order) : 0.1857659E+04  (-0.5471936E+04)
 number of electron     156.0000000 magnetization 
 augmentation part      156.0000000 magnetization 

 Free energy of the ion-electron system (eV)
  ---------------------------------------------------
  alpha Z        PSCENC =       739.05072767
  Ewald energy   TEWEN  =     -7575.20747300
  -Hartree energ DENC   =     -2027.09532941
  -exchange      EXHF   =         0.00000000
  -V(xc)+E(xc)   XCENC  =        56.46933784
  PAW double counting   =      7744.08000813    -7290.88659083
  entropy T*S    EENTRO =        -0.01827481
  eigenvalues    EBANDS =      1293.02183637
  atomic energy  EATOM  =      8918.24473510
  Solvation  Ediel_sol  =         0.00000000
  ---------------------------------------------------
  free energy    TOTEN  =      1857.65897706 eV

  energy without entropy =     1857.67725187  energy(sigma->0) =     1857.66811447


--------------------------------------------------------------------------------------------------------




--------------------------------------- Iteration      1(   2)  ---------------------------------------


     EDDAV:  cpu time    2.2246: real time    2.2278
       DOS:  cpu time    0.0007: real time    0.0007
    --------------------------------------------
      LOOP:  cpu time    2.2253: real time    2.2284

 eigenvalue-minimisations  :  3712
 total energy-change (2. order) :-0.1567160E+04  (-0.1505487E+04)
 number of electron     156.0000000 magnetization 
 augmentation part      156.0000000 magnetization 

 Free energy of the ion-electron system (eV)
  ---------------------------------------------------
  alpha Z        PSCENC =       739.05072767
  Ewald energy   TEWEN  =     -7575.20747300
  -Hartree energ DENC   =     -2027.09532941
  -exchange      EXHF   =         0.00000000
  -V(xc)+E(xc)   XCENC  =        56.46933784
  PAW double counting   =      7744.08000813    -7290.88659083
  entropy T*S    EENTRO =        -0.01653190
  eigenvalues    EBANDS =      -274.14022492
  atomic energy  EATOM  =      8918.24473510
  Solvation  Ediel_sol  =         0.00000000
  ---------------------------------------------------
  free energy    TOTEN  =       290.49865869 eV

  energy without entropy =      290.51519058  energy(sigma->0) =      290.50692464


--------------------------------------------------------------------------------------------------------




--------------------------------------- Iteration      1(   3)  ---------------------------------------


     EDDAV:  cpu time    2.8281: real time    2.8319
       DOS:  cpu time    0.0005: real time    0.0005
    --------------------------------------------
      LOOP:  cpu time    2.8286: real time    2.8324

 eigenvalue-minimisations  :  5040
 total energy-change (2. order) :-0.5793542E+03  (-0.5722022E+03)
 number of electron     156.0000000 magnetization 
 augmentation part      156.0000000 magnetization 

 Free energy of the ion-electron system (eV)
  ---------------------------------------------------
  alpha Z        PSCENC =       739.05072767
  Ewald energy   TEWEN  =     -7575.20747300
  -Hartree energ DENC   =     -2027.09532941
  -exchange      EXHF   =         0.00000000
  -V(xc)+E(xc)   XCENC  =        56.46933784
  PAW double counting   =      7744.08000813    -7290.88659083
  entropy T*S    EENTRO =        -0.01402690
  eigenvalues    EBANDS =      -853.49690742
  atomic energy  EATOM  =      8918.24473510
  Solvation  Ediel_sol  =         0.00000000
  ---------------------------------------------------
  free energy    TOTEN  =      -288.85551882 eV

  energy without entropy =     -288.84149192  energy(sigma->0) =     -288.84850537


--------------------------------------------------------------------------------------------------------




--------------------------------------- Iteration      1(   4)  ---------------------------------------


     EDDAV:  cpu time    2.7479: real time    2.7507
       DOS:  cpu time    0.0005: real time    0.0005
    --------------------------------------------
      LOOP:  cpu time    2.7484: real time    2.7513

 eigenvalue-minimisations  :  4928
 total energy-change (2. order) :-0.4159952E+02  (-0.4136166E+02)
 number of electron     156.0000000 magnetization 
 augmentation part      156.0000000 magnetization 

 Free energy of the ion-electron system (eV)
  ---------------------------------------------------
  alpha Z        PSCENC =       739.05072767
  Ewald energy   TEWEN  =     -7575.20747300
  -Hartree energ DENC   =     -2027.09532941
  -exchange      EXHF   =         0.00000000
  -V(xc)+E(xc)   XCENC  =        56.46933784
  PAW double counting   =      7744.08000813    -7290.88659083
  entropy T*S    EENTRO =        -0.01729979
  eigenvalues    EBANDS =      -895.09315004
  atomic energy  EATOM  =      8918.24473510
  Solvation  Ediel_sol  =         0.00000000
  ---------------------------------------------------
  free energy    TOTEN  =      -330.45503433 eV

  energy without entropy =     -330.43773454  energy(sigma->0) =     -330.44638443


--------------------------------------------------------------------------------------------------------




--------------------------------------- Iteration      1(   5)  ---------------------------------------


     EDDAV:  cpu time    2.7932: real time    2.7971
       DOS:  cpu time    0.0005: real time    0.0005
    CHARGE:  cpu time    0.1273: real time    0.1273
    MIXING:  cpu time    0.0010: real time    0.0010
    --------------------------------------------
      LOOP:  cpu time    2.9221: real time    2.9260

 eigenvalue-minimisations  :  5056
 total energy-change (2. order) :-0.1298957E+01  (-0.1294181E+01)
 number of electron     156.0000083 magnetization 
 augmentation part       22.5033837 magnetization 

 Broyden mixing:
  rms(total) = 0.81647E+01    rms(broyden)= 0.81640E+01
  rms(prec ) = 0.87073E+01
  weight for this iteration     100.00

 Free energy of the ion-electron system (eV)
  ---------------------------------------------------
  alpha Z        PSCENC =       739.05072767
  Ewald energy   TEWEN  =     -7575.20747300
  -Hartree energ DENC   =     -2027.09532941
  -exchange      EXHF   =         0.00000000
  -V(xc)+E(xc)   XCENC  =        56.46933784
  PAW double counting   =      7744.08000813    -7290.88659083
  entropy T*S    EENTRO =        -0.01767570
  eigenvalues    EBANDS =      -896.39173122
  atomic energy  EATOM  =      8918.24473510
  Solvation  Ediel_sol  =         0.00000000
  ---------------------------------------------------
  free energy    TOTEN  =      -331.75399142 eV

  energy without entropy =     -331.73631572  energy(sigma->0) =     -331.74515357


--------------------------------------------------------------------------------------------------------




--------------------------------------- Iteration      1(   6)  ---------------------------------------


    POTLOK:  cpu time    0.0244: real time    0.0244
    SETDIJ:  cpu time    0.0053: real time    0.0060
     EDDAV:  cpu time    2.7885: real time    2.7917
       DOS:  cpu time    0.0006: real time    0.0006
    CHARGE:  cpu time    0.1297: real time    0.1297
    MIXING:  cpu time    0.0011: real time    0.0011
    --------------------------------------------
      LOOP:  cpu time    2.9495: real time    2.9699

 eigenvalue-minimisations  :  5056
 total energy-change (2. order) : 0.6155550E+02  (-0.4230239E+02)
 number of electron     156.0000062 magnetization 
 augmentation part       24.6687223 magnetization 

 Broyden mixing:
  rms(total) = 0.32112E+01    rms(broyden)= 0.32096E+01
  rms(prec ) = 0.32884E+01
  weight for this iteration     100.00

 eigenvalues of (default mixing * dielectric matrix)
  average eigenvalue GAMMA=   1.1065
  1.1065

 Free energy of the ion-electron system (eV)
  ---------------------------------------------------
  alpha Z        PSCENC =       739.05072767
  Ewald energy   TEWEN  =     -7575.20747300
  -Hartree energ DENC   =     -2393.40803171
  -exchange      EXHF   =         0.00000000
  -V(xc)+E(xc)   XCENC  =        88.32324385
  PAW double counting   =     10456.61545391   -10003.90447607
  entropy T*S    EENTRO =        -0.01299963
  eigenvalues    EBANDS =      -499.89966702
  atomic energy  EATOM  =      8918.24473510
  Solvation  Ediel_sol  =         0.00000000
  ---------------------------------------------------
  free energy    TOTEN  =      -270.19848689 eV

  energy without entropy =     -270.18548726  energy(sigma->0) =     -270.19198707


--------------------------------------------------------------------------------------------------------




--------------------------------------- Iteration      1(   7)  ---------------------------------------


    POTLOK:  cpu time    0.0275: real time    0.0446
    SETDIJ:  cpu time    0.0051: real time    0.0051
     EDDAV:  cpu time    2.9798: real time    2.9832
       DOS:  cpu time    0.0005: real time    0.0005
    CHARGE:  cpu time    0.1281: real time    0.1282
    MIXING:  cpu time    0.0011: real time    0.0011
    --------------------------------------------
      LOOP:  cpu time    3.1421: real time    3.1462

 eigenvalue-minimisations  :  5456
 total energy-change (2. order) : 0.1493968E+01  (-0.3951851E+01)
 number of electron     156.0000067 magnetization 
 augmentation part       23.7692961 magnetization 

 Broyden mixing:
  rms(total) = 0.21124E+01    rms(broyden)= 0.21124E+01
  rms(prec ) = 0.21459E+01
  weight for this iteration     100.00

 eigenvalues of (default mixing * dielectric matrix)
  average eigenvalue GAMMA=   1.7314
  0.8175  2.6453

 Free energy of the ion-electron system (eV)
  ---------------------------------------------------
  alpha Z        PSCENC =       739.05072767
  Ewald energy   TEWEN  =     -7575.20747300
  -Hartree energ DENC   =     -2298.16248019
  -exchange      EXHF   =         0.00000000
  -V(xc)+E(xc)   XCENC  =        81.66844453
  PAW double counting   =     11970.45695148   -11519.88796986
  entropy T*S    EENTRO =        -0.01417382
  eigenvalues    EBANDS =      -584.85328105
  atomic energy  EATOM  =      8918.24473510
  Solvation  Ediel_sol  =         0.00000000
  ---------------------------------------------------
  free energy    TOTEN  =      -268.70451915 eV

  energy without entropy =     -268.69034533  energy(sigma->0) =     -268.69743224


--------------------------------------------------------------------------------------------------------




--------------------------------------- Iteration      1(   8)  ---------------------------------------


    POTLOK:  cpu time    0.0230: real time    0.0231
    SETDIJ:  cpu time    0.0050: real time    0.0050
     EDDAV:  cpu time    2.4467: real time    2.4498
       DOS:  cpu time    0.0005: real time    0.0005
    CHARGE:  cpu time    0.1349: real time    0.1350
    MIXING:  cpu time    0.0015: real time    0.0015
    --------------------------------------------
      LOOP:  cpu time    2.6117: real time    2.6149

 eigenvalue-minimisations  :  4304
 total energy-change (2. order) : 0.7543444E+00  (-0.7958977E+00)
 number of electron     156.0000066 magnetization 
 augmentation part       24.8227723 magnetization 

 Broyden mixing:
  rms(total) = 0.61693E+00    rms(broyden)= 0.61692E+00
  rms(prec ) = 0.63293E+00
  weight for this iteration     100.00

 eigenvalues of (default mixing * dielectric matrix)
  average eigenvalue GAMMA=   1.2787
  2.2898  0.8575  0.6889

 Free energy of the ion-electron system (eV)
  ---------------------------------------------------
  alpha Z        PSCENC =       739.05072767
  Ewald energy   TEWEN  =     -7575.20747300
  -Hartree energ DENC   =     -2308.99083933
  -exchange      EXHF   =         0.00000000
  -V(xc)+E(xc)   XCENC  =        85.00735962
  PAW double counting   =     15119.14801718   -14670.55337974
  entropy T*S    EENTRO =        -0.01099693
  eigenvalues    EBANDS =      -574.63832527
  atomic energy  EATOM  =      8918.24473510
  Solvation  Ediel_sol  =         0.00000000
  ---------------------------------------------------
  free energy    TOTEN  =      -267.95017471 eV

  energy without entropy =     -267.93917778  energy(sigma->0) =     -267.94467624


--------------------------------------------------------------------------------------------------------




--------------------------------------- Iteration      1(   9)  ---------------------------------------


    POTLOK:  cpu time    0.0270: real time    0.0282
    SETDIJ:  cpu time    0.0053: real time    0.0058
     EDDAV:  cpu time    2.5163: real time    2.5194
       DOS:  cpu time    0.0005: real time    0.0005
    CHARGE:  cpu time    0.1302: real time    0.1303
    MIXING:  cpu time    0.0011: real time    0.0011
    --------------------------------------------
      LOOP:  cpu time    2.6805: real time    2.6854

 eigenvalue-minimisations  :  4448
 total energy-change (2. order) : 0.1523422E+00  (-0.7020833E-01)
 number of electron     156.0000066 magnetization 
 augmentation part       24.5561389 magnetization 

 Broyden mixing:
  rms(total) = 0.87464E-01    rms(broyden)= 0.87457E-01
  rms(prec ) = 0.96241E-01
  weight for this iteration     100.00

 eigenvalues of (default mixing * dielectric matrix)
  average eigenvalue GAMMA=   1.2673
  2.3770  0.9440  0.9440  0.8043

 Free energy of the ion-electron system (eV)
  ---------------------------------------------------
  alpha Z        PSCENC =       739.05072767
  Ewald energy   TEWEN  =     -7575.20747300
  -Hartree energ DENC   =     -2309.24876731
  -exchange      EXHF   =         0.00000000
  -V(xc)+E(xc)   XCENC  =        84.46809769
  PAW double counting   =     14582.27649545   -14134.15906606
  entropy T*S    EENTRO =        -0.01145258
  eigenvalues    EBANDS =      -573.21112952
  atomic energy  EATOM  =      8918.24473510
  Solvation  Ediel_sol  =         0.00000000
  ---------------------------------------------------
  free energy    TOTEN  =      -267.79783255 eV

  energy without entropy =     -267.78637998  energy(sigma->0) =     -267.79210627


--------------------------------------------------------------------------------------------------------




--------------------------------------- Iteration      1(  10)  ---------------------------------------


    POTLOK:  cpu time    0.0232: real time    0.0232
    SETDIJ:  cpu time    0.0049: real time    0.0049
     EDDAV:  cpu time    2.7519: real time    2.7546
       DOS:  cpu time    0.0006: real time    0.0006
    CHARGE:  cpu time    0.1296: real time    0.1300
    MIXING:  cpu time    0.0011: real time    0.0011
    --------------------------------------------
      LOOP:  cpu time    2.9112: real time    2.9144

 eigenvalue-minimisations  :  4976
 total energy-change (2. order) : 0.8691785E-02  (-0.7455494E-02)
 number of electron     156.0000066 magnetization 
 augmentation part       24.4848673 magnetization 

 Broyden mixing:
  rms(total) = 0.53873E-01    rms(broyden)= 0.53871E-01
  rms(prec ) = 0.57383E-01
  weight for this iteration     100.00

 eigenvalues of (default mixing * dielectric matrix)
  average eigenvalue GAMMA=   1.4243
  2.6055  1.8250  1.0592  0.8158  0.8158

 Free energy of the ion-electron system (eV)
  ---------------------------------------------------
  alpha Z        PSCENC =       739.05072767
  Ewald energy   TEWEN  =     -7575.20747300
  -Hartree energ DENC   =     -2310.64804944
  -exchange      EXHF   =         0.00000000
  -V(xc)+E(xc)   XCENC  =        84.50615816
  PAW double counting   =     14650.09803694   -14202.55110247
  entropy T*S    EENTRO =        -0.01162110
  eigenvalues    EBANDS =      -571.27055263
  atomic energy  EATOM  =      8918.24473510
  Solvation  Ediel_sol  =         0.00000000
  ---------------------------------------------------
  free energy    TOTEN  =      -267.78914077 eV

  energy without entropy =     -267.77751967  energy(sigma->0) =     -267.78333022


--------------------------------------------------------------------------------------------------------




--------------------------------------- Iteration      1(  11)  ---------------------------------------


    POTLOK:  cpu time    0.0232: real time    0.0233
    SETDIJ:  cpu time    0.0049: real time    0.0049
     EDDAV:  cpu time    2.5787: real time    2.5814
       DOS:  cpu time    0.0006: real time    0.0006
    CHARGE:  cpu time    0.1311: real time    0.1312
    MIXING:  cpu time    0.0012: real time    0.0012
    --------------------------------------------
      LOOP:  cpu time    2.7397: real time    2.7425

 eigenvalue-minimisations  :  4544
 total energy-change (2. order) : 0.2503655E-02  (-0.2061326E-02)
 number of electron     156.0000066 magnetization 
 augmentation part       24.4599432 magnetization 

 Broyden mixing:
  rms(total) = 0.15618E-01    rms(broyden)= 0.15603E-01
  rms(prec ) = 0.16995E-01
  weight for this iteration     100.00

 eigenvalues of (default mixing * dielectric matrix)
  average eigenvalue GAMMA=   1.4303
  2.5943  2.1077  1.1192  1.1192  0.8206  0.8206

 Free energy of the ion-electron system (eV)
  ---------------------------------------------------
  alpha Z        PSCENC =       739.05072767
  Ewald energy   TEWEN  =     -7575.20747300
  -Hartree energ DENC   =     -2315.36887594
  -exchange      EXHF   =         0.00000000
  -V(xc)+E(xc)   XCENC  =        84.78722207
  PAW double counting   =     14652.62729791   -14205.47249776
  entropy T*S    EENTRO =        -0.01168305
  eigenvalues    EBANDS =      -566.43609013
  atomic energy  EATOM  =      8918.24473510
  Solvation  Ediel_sol  =         0.00000000
  ---------------------------------------------------
  free energy    TOTEN  =      -267.78663712 eV

  energy without entropy =     -267.77495407  energy(sigma->0) =     -267.78079559


--------------------------------------------------------------------------------------------------------




--------------------------------------- Iteration      1(  12)  ---------------------------------------


    POTLOK:  cpu time    0.0274: real time    0.0281
    SETDIJ:  cpu time    0.0052: real time    0.0052
     EDDAV:  cpu time    3.0898: real time    3.0932
       DOS:  cpu time    0.0005: real time    0.0005
    CHARGE:  cpu time    0.1297: real time    0.1301
    MIXING:  cpu time    0.0011: real time    0.0011
    --------------------------------------------
      LOOP:  cpu time    3.2537: real time    3.2583

 eigenvalue-minimisations  :  5712
 total energy-change (2. order) :-0.5940695E-04  (-0.4701440E-03)
 number of electron     156.0000066 magnetization 
 augmentation part       24.4453594 magnetization 

 Broyden mixing:
  rms(total) = 0.11716E-01    rms(broyden)= 0.11713E-01
  rms(prec ) = 0.12849E-01
  weight for this iteration     100.00

 eigenvalues of (default mixing * dielectric matrix)
  average eigenvalue GAMMA=   1.5357
  2.8607  2.0870  2.0870  1.0682  1.0682  0.7894  0.7894

 Free energy of the ion-electron system (eV)
  ---------------------------------------------------
  alpha Z        PSCENC =       739.05072767
  Ewald energy   TEWEN  =     -7575.20747300
  -Hartree energ DENC   =     -2314.37904982
  -exchange      EXHF   =         0.00000000
  -V(xc)+E(xc)   XCENC  =        84.69710669
  PAW double counting   =     14634.52119189   -14187.35454407
  entropy T*S    EENTRO =        -0.01173375
  eigenvalues    EBANDS =      -567.34765724
  atomic energy  EATOM  =      8918.24473510
  Solvation  Ediel_sol  =         0.00000000
  ---------------------------------------------------
  free energy    TOTEN  =      -267.78669652 eV

  energy without entropy =     -267.77496278  energy(sigma->0) =     -267.78082965


--------------------------------------------------------------------------------------------------------




--------------------------------------- Iteration      1(  13)  ---------------------------------------


    POTLOK:  cpu time    0.0231: real time    0.0231
    SETDIJ:  cpu time    0.0049: real time    0.0049
     EDDAV:  cpu time    2.7163: real time    2.7191
       DOS:  cpu time    0.0005: real time    0.0005
    CHARGE:  cpu time    0.1300: real time    0.1304
    MIXING:  cpu time    0.0011: real time    0.0011
    --------------------------------------------
      LOOP:  cpu time    2.8759: real time    2.8792

 eigenvalue-minimisations  :  4896
 total energy-change (2. order) : 0.1216303E-03  (-0.1791208E-03)
 number of electron     156.0000066 magnetization 
 augmentation part       24.4578479 magnetization 

 Broyden mixing:
  rms(total) = 0.63144E-02    rms(broyden)= 0.63135E-02
  rms(prec ) = 0.65268E-02
  weight for this iteration     100.00

 eigenvalues of (default mixing * dielectric matrix)
  average eigenvalue GAMMA=   1.4865
  2.7833  2.4225  2.0045  1.0685  1.0685  0.7931  0.7931  0.9584

 Free energy of the ion-electron system (eV)
  ---------------------------------------------------
  alpha Z        PSCENC =       739.05072767
  Ewald energy   TEWEN  =     -7575.20747300
  -Hartree energ DENC   =     -2314.75225063
  -exchange      EXHF   =         0.00000000
  -V(xc)+E(xc)   XCENC  =        84.74111423
  PAW double counting   =     14640.61380760   -14193.40761937
  entropy T*S    EENTRO =        -0.01169107
  eigenvalues    EBANDS =      -567.05792543
  atomic energy  EATOM  =      8918.24473510
  Solvation  Ediel_sol  =         0.00000000
  ---------------------------------------------------
  free energy    TOTEN  =      -267.78657489 eV

  energy without entropy =     -267.77488382  energy(sigma->0) =     -267.78072935


--------------------------------------------------------------------------------------------------------




--------------------------------------- Iteration      1(  14)  ---------------------------------------


    POTLOK:  cpu time    0.0233: real time    0.0233
    SETDIJ:  cpu time    0.0049: real time    0.0049
     EDDAV:  cpu time    2.5935: real time    2.5963
       DOS:  cpu time    0.0006: real time    0.0006
    CHARGE:  cpu time    0.1300: real time    0.1300
    MIXING:  cpu time    0.0011: real time    0.0011
    --------------------------------------------
      LOOP:  cpu time    2.7534: real time    2.7563

 eigenvalue-minimisations  :  4592
 total energy-change (2. order) : 0.2203857E-04  (-0.1389564E-04)
 number of electron     156.0000066 magnetization 
 augmentation part       24.4542985 magnetization 

 Broyden mixing:
  rms(total) = 0.61188E-03    rms(broyden)= 0.61167E-03
  rms(prec ) = 0.68337E-03
  weight for this iteration     100.00

 eigenvalues of (default mixing * dielectric matrix)
  average eigenvalue GAMMA=   1.4782
  2.8186  2.3255  2.0293  1.2716  1.2716  0.7913  0.7913  1.0021  1.0021

 Free energy of the ion-electron system (eV)
  ---------------------------------------------------
  alpha Z        PSCENC =       739.05072767
  Ewald energy   TEWEN  =     -7575.20747300
  -Hartree energ DENC   =     -2314.69274082
  -exchange      EXHF   =         0.00000000
  -V(xc)+E(xc)   XCENC  =        84.72976923
  PAW double counting   =     14634.10163351   -14186.89493341
  entropy T*S    EENTRO =        -0.01170234
  eigenvalues    EBANDS =      -567.10656881
  atomic energy  EATOM  =      8918.24473510
  Solvation  Ediel_sol  =         0.00000000
  ---------------------------------------------------
  free energy    TOTEN  =      -267.78655285 eV

  energy without entropy =     -267.77485051  energy(sigma->0) =     -267.78070168


--------------------------------------------------------------------------------------------------------




--------------------------------------- Iteration      1(  15)  ---------------------------------------


    POTLOK:  cpu time    0.0232: real time    0.0232
    SETDIJ:  cpu time    0.0049: real time    0.0049
     EDDAV:  cpu time    2.7596: real time    2.7629
       DOS:  cpu time    0.0006: real time    0.0006
    CHARGE:  cpu time    0.1301: real time    0.1302
    MIXING:  cpu time    0.0013: real time    0.0013
    --------------------------------------------
      LOOP:  cpu time    2.9196: real time    2.9230

 eigenvalue-minimisations  :  4928
 total energy-change (2. order) :-0.5193815E-06  (-0.4796611E-06)
 number of electron     156.0000066 magnetization 
 augmentation part       24.4542656 magnetization 

 Broyden mixing:
  rms(total) = 0.32764E-03    rms(broyden)= 0.32751E-03
  rms(prec ) = 0.35414E-03
  weight for this iteration     100.00

 eigenvalues of (default mixing * dielectric matrix)
  average eigenvalue GAMMA=   1.5762
  3.0257  2.5597  2.5597  1.6870  1.2782  1.0798  1.0798  0.7902  0.7902  0.9116

 Free energy of the ion-electron system (eV)
  ---------------------------------------------------
  alpha Z        PSCENC =       739.05072767
  Ewald energy   TEWEN  =     -7575.20747300
  -Hartree energ DENC   =     -2314.73328054
  -exchange      EXHF   =         0.00000000
  -V(xc)+E(xc)   XCENC  =        84.73220581
  PAW double counting   =     14634.10442153   -14186.89829959
  entropy T*S    EENTRO =        -0.01170298
  eigenvalues    EBANDS =      -567.06788738
  atomic energy  EATOM  =      8918.24473510
  Solvation  Ediel_sol  =         0.00000000
  ---------------------------------------------------
  free energy    TOTEN  =      -267.78655337 eV

  energy without entropy =     -267.77485039  energy(sigma->0) =     -267.78070188


--------------------------------------------------------------------------------------------------------




--------------------------------------- Iteration      1(  16)  ---------------------------------------


    POTLOK:  cpu time    0.0233: real time    0.0233
    SETDIJ:  cpu time    0.0049: real time    0.0049
     EDDAV:  cpu time    2.5860: real time    2.5890
       DOS:  cpu time    0.0006: real time    0.0006
    CHARGE:  cpu time    0.1301: real time    0.1302
    MIXING:  cpu time    0.0013: real time    0.0013
    --------------------------------------------
      LOOP:  cpu time    2.7461: real time    2.7492

 eigenvalue-minimisations  :  4576
 total energy-change (2. order) :-0.8202369E-07  (-0.1526770E-06)
 number of electron     156.0000066 magnetization 
 augmentation part       24.4542172 magnetization 

 Broyden mixing:
  rms(total) = 0.26022E-03    rms(broyden)= 0.26013E-03
  rms(prec ) = 0.28418E-03
  weight for this iteration     100.00

 eigenvalues of (default mixing * dielectric matrix)
  average eigenvalue GAMMA=   1.5042
  2.9993  2.6172  2.3454  1.6208  1.1444  1.1444  1.1789  0.7918  0.7918  0.9563
  0.9563

 Free energy of the ion-electron system (eV)
  ---------------------------------------------------
  alpha Z        PSCENC =       739.05072767
  Ewald energy   TEWEN  =     -7575.20747300
  -Hartree energ DENC   =     -2314.75786869
  -exchange      EXHF   =         0.00000000
  -V(xc)+E(xc)   XCENC  =        84.73349462
  PAW double counting   =     14633.94932411   -14186.74243826
  entropy T*S    EENTRO =        -0.01170347
  eigenvalues    EBANDS =      -567.04535154
  atomic energy  EATOM  =      8918.24473510
  Solvation  Ediel_sol  =         0.00000000
  ---------------------------------------------------
  free energy    TOTEN  =      -267.78655345 eV

  energy without entropy =     -267.77484998  energy(sigma->0) =     -267.78070172


--------------------------------------------------------------------------------------------------------




--------------------------------------- Iteration      1(  17)  ---------------------------------------


    POTLOK:  cpu time    0.0232: real time    0.0232
    SETDIJ:  cpu time    0.0049: real time    0.0049
     EDDAV:  cpu time    2.9765: real time    2.9799
       DOS:  cpu time    0.0006: real time    0.0006
    CHARGE:  cpu time    0.1319: real time    0.1320
    MIXING:  cpu time    0.0017: real time    0.0017
    --------------------------------------------
      LOOP:  cpu time    3.1388: real time    3.1423

 eigenvalue-minimisations  :  5456
 total energy-change (2. order) : 0.1217486E-06  (-0.4425738E-07)
 number of electron     156.0000066 magnetization 
 augmentation part       24.4540722 magnetization 

 Broyden mixing:
  rms(total) = 0.53062E-04    rms(broyden)= 0.52989E-04
  rms(prec ) = 0.55972E-04
  weight for this iteration     100.00

 eigenvalues of (default mixing * dielectric matrix)
  average eigenvalue GAMMA=   1.5658
  3.1399  2.5092  2.5092  2.0275  1.4959  1.4959  1.0794  1.0794  0.7909  0.7909
  0.9403  0.9314

 Free energy of the ion-electron system (eV)
  ---------------------------------------------------
  alpha Z        PSCENC =       739.05072767
  Ewald energy   TEWEN  =     -7575.20747300
  -Hartree energ DENC   =     -2314.74971539
  -exchange      EXHF   =         0.00000000
  -V(xc)+E(xc)   XCENC  =        84.73272503
  PAW double counting   =     14633.84576909   -14186.63932443
  entropy T*S    EENTRO =        -0.01170380
  eigenvalues    EBANDS =      -567.05229360
  atomic energy  EATOM  =      8918.24473510
  Solvation  Ediel_sol  =         0.00000000
  ---------------------------------------------------
  free energy    TOTEN  =      -267.78655333 eV

  energy without entropy =     -267.77484954  energy(sigma->0) =     -267.78070143


--------------------------------------------------------------------------------------------------------




--------------------------------------- Iteration      1(  18)  ---------------------------------------


    POTLOK:  cpu time    0.0250: real time    0.0256
    SETDIJ:  cpu time    0.0051: real time    0.0057
     EDDAV:  cpu time    2.3043: real time    2.3068
       DOS:  cpu time    0.0005: real time    0.0005
    CHARGE:  cpu time    0.1297: real time    0.1301
    MIXING:  cpu time    0.0014: real time    0.0014
    --------------------------------------------
      LOOP:  cpu time    2.4660: real time    2.4702

 eigenvalue-minimisations  :  3968
 total energy-change (2. order) :-0.1516273E-06  (-0.5586732E-08)
 number of electron     156.0000066 magnetization 
 augmentation part       24.4539934 magnetization 

 Broyden mixing:
  rms(total) = 0.48906E-04    rms(broyden)= 0.48903E-04
  rms(prec ) = 0.51901E-04
  weight for this iteration     100.00

 eigenvalues of (default mixing * dielectric matrix)
  average eigenvalue GAMMA=   1.5353
  3.1329  2.7385  2.3811  1.7863  1.4767  1.4767  0.7909  0.7909  1.2914  0.9122
  1.0643  1.0643  1.0531

 Free energy of the ion-electron system (eV)
  ---------------------------------------------------
  alpha Z        PSCENC =       739.05072767
  Ewald energy   TEWEN  =     -7575.20747300
  -Hartree energ DENC   =     -2314.75271423
  -exchange      EXHF   =         0.00000000
  -V(xc)+E(xc)   XCENC  =        84.73279540
  PAW double counting   =     14633.83838332   -14186.63259375
  entropy T*S    EENTRO =        -0.01170399
  eigenvalues    EBANDS =      -567.04871000
  atomic energy  EATOM  =      8918.24473510
  Solvation  Ediel_sol  =         0.00000000
  ---------------------------------------------------
  free energy    TOTEN  =      -267.78655348 eV

  energy without entropy =     -267.77484949  energy(sigma->0) =     -267.78070149


--------------------------------------------------------------------------------------------------------




--------------------------------------- Iteration      1(  19)  ---------------------------------------


    POTLOK:  cpu time    0.0231: real time    0.0231
    SETDIJ:  cpu time    0.0050: real time    0.0050
     EDDAV:  cpu time    1.8199: real time    1.8217
       DOS:  cpu time    0.0005: real time    0.0005
    CHARGE:  cpu time    0.1304: real time    0.1309
    MIXING:  cpu time    0.0013: real time    0.0013
    --------------------------------------------
      LOOP:  cpu time    1.9803: real time    1.9826

 eigenvalue-minimisations  :  2736
 total energy-change (2. order) : 0.1444278E-07  (-0.1116745E-08)
 number of electron     156.0000066 magnetization 
 augmentation part       24.4540310 magnetization 

 Broyden mixing:
  rms(total) = 0.11773E-04    rms(broyden)= 0.11772E-04
  rms(prec ) = 0.12452E-04
  weight for this iteration     100.00

 eigenvalues of (default mixing * dielectric matrix)
  average eigenvalue GAMMA=   1.5257
  3.0777  2.7628  2.2654  2.2654  1.5825  1.4184  1.4184  1.2240  0.7904  0.7904
  0.9905  0.9905  0.8917  0.8917

 Free energy of the ion-electron system (eV)
  ---------------------------------------------------
  alpha Z        PSCENC =       739.05072767
  Ewald energy   TEWEN  =     -7575.20747300
  -Hartree energ DENC   =     -2314.75242411
  -exchange      EXHF   =         0.00000000
  -V(xc)+E(xc)   XCENC  =        84.73283088
  PAW double counting   =     14633.86295791   -14186.65704190
  entropy T*S    EENTRO =        -0.01170389
  eigenvalues    EBANDS =      -567.04916214
  atomic energy  EATOM  =      8918.24473510
  Solvation  Ediel_sol  =         0.00000000
  ---------------------------------------------------
  free energy    TOTEN  =      -267.78655347 eV

  energy without entropy =     -267.77484958  energy(sigma->0) =     -267.78070153


--------------------------------------------------------------------------------------------------------




--------------------------------------- Iteration      1(  20)  ---------------------------------------


    POTLOK:  cpu time    0.0232: real time    0.0232
    SETDIJ:  cpu time    0.0049: real time    0.0049
     EDDAV:  cpu time    1.8202: real time    1.8220
       DOS:  cpu time    0.0005: real time    0.0005
    --------------------------------------------
      LOOP:  cpu time    1.8489: real time    1.8507

 eigenvalue-minimisations  :  2736
 total energy-change (2. order) : 0.6544724E-08  (-0.1981408E-09)
 number of electron     156.0000066 magnetization 
 augmentation part       24.4540310 magnetization 

 Free energy of the ion-electron system (eV)
  ---------------------------------------------------
  alpha Z        PSCENC =       739.05072767
  Ewald energy   TEWEN  =     -7575.20747300
  -Hartree energ DENC   =     -2314.75242771
  -exchange      EXHF   =         0.00000000
  -V(xc)+E(xc)   XCENC  =        84.73282839
  PAW double counting   =     14633.85336708   -14186.64747469
  entropy T*S    EENTRO =        -0.01170389
  eigenvalues    EBANDS =      -567.04913241
  atomic energy  EATOM  =      8918.24473510
  Solvation  Ediel_sol  =         0.00000000
  ---------------------------------------------------
  free energy    TOTEN  =      -267.78655346 eV

  energy without entropy =     -267.77484957  energy(sigma->0) =     -267.78070152


--------------------------------------------------------------------------------------------------------




 average (electrostatic) potential at core
  the test charge radii are     1.2598  0.7215
  (the norm of the test charge is              1.0000)
       1 -26.1556       2 -26.1556       3 -26.1556       4 -26.1556       5 -26.1556
       6 -26.1556       7 -26.1556       8 -26.1556       9 -26.1556      10 -26.1556
      11 -26.1556      12 -26.1556      13 -72.0204      14 -72.0204      15 -72.0204
      16 -72.0204      17 -72.0204      18 -72.0204      19 -72.0204      20 -72.0204
      21 -72.0204      22 -72.0204      23 -72.0204      24 -72.0204      25 -72.0204
      26 -72.0204      27 -72.0204      28 -72.0204      29 -72.0204      30 -72.0204
 
 
 
 E-fermi :   5.1656     XC(G=0): -11.4811     alpha+bet :-11.6590


 k-point     1 :       0.0000    0.0000    0.2500
  band No.  band energies     occupation 
      1     -15.8532      2.00000
      2     -15.6816      2.00000
      3     -15.3717      2.00000
      4     -14.9911      2.00000
      5     -14.8008      2.00000
      6     -14.8008      2.00000
      7     -14.7600      2.00000
      8     -14.7600      2.00000
      9     -14.6879      2.00000
     10     -14.6879      2.00000
     11     -14.6352      2.00000
     12     -14.6027      2.00000
     13     -14.6027      2.00000
     14     -14.5273      2.00000
     15     -14.5273      2.00000
     16     -14.4833      2.00000
     17     -14.4833      2.00000
     18     -14.4162      2.00000
     19      -2.9395      2.00000
     20      -2.5553      2.00000
     21      -2.3347      2.00000
     22      -2.3347      2.00000
     23      -2.2353      2.00000
     24      -2.2353      2.00000
     25      -2.0627      2.00000
     26      -2.0627      2.00000
     27      -2.0255      2.00000
     28      -1.9153      2.00000
     29      -1.9153      2.00000
     30      -1.8859      2.00000
     31      -1.8859      2.00000
     32      -1.8327      2.00000
     33      -1.8327      2.00000
     34      -1.7786      2.00000
     35      -1.7762      2.00000
     36      -1.6045      2.00000
     37      -1.4864      2.00000
     38      -1.4864      2.00000
     39      -1.4418      2.00000
     40      -1.3897      2.00000
     41      -1.3897      2.00000
     42      -1.3608      2.00000
     43      -1.3608      2.00000
     44      -1.1449      2.00000
     45      -1.0633      2.00000
     46      -1.0633      2.00000
     47      -0.9934      2.00000
     48      -0.9934      2.00000
     49      -0.9023      2.00000
     50      -0.9023      2.00000
     51      -0.7545      2.00000
     52      -0.5965      2.00000
     53      -0.4401      2.00000
     54      -0.1038      2.00000
     55       0.2266      2.00000
     56       0.2977      2.00000
     57       0.3189      2.00000
     58       0.3189      2.00000
     59       0.3415      2.00000
     60       0.3903      2.00000
     61       0.3903      2.00000
     62       0.5548      2.00000
     63       0.5548      2.00000
     64       0.5810      2.00000
     65       0.7605      2.00000
     66       0.7605      2.00000
     67       0.7946      2.00000
     68       1.1179      2.00000
     69       1.1179      2.00000
     70       1.2537      2.00000
     71       1.2537      2.00000
     72       1.3085      2.00000
     73       4.3125      2.00000
     74       4.7594      2.00000
     75       5.0691      1.99363
     76       5.0691      1.99363
     77       5.2746      0.00205
     78       5.2746      0.00205
     79       5.3302      0.00000
     80       5.4861      0.00000
     81       5.4861      0.00000
     82       5.4873      0.00000
     83       5.4873      0.00000
     84       5.4903      0.00000
     85       5.5338      0.00000
     86       5.5543      0.00000
     87       5.5543      0.00000
     88       5.5779      0.00000
     89       5.6033      0.00000
     90       5.6033      0.00000
     91       5.6500      0.00000
     92       5.6500      0.00000
     93       5.7538      0.00000
     94       5.7538      0.00000
     95       5.8071      0.00000
     96       5.8071      0.00000

 k-point     2 :       0.1111    0.0000    0.2500
  band No.  band energies     occupation 
      1     -15.8122      2.00000
      2     -15.6475      2.00000
      3     -15.3491      2.00000
      4     -14.9893      2.00000
      5     -14.7997      2.00000
      6     -14.7994      2.00000
      7     -14.7970      2.00000
      8     -14.7342      2.00000
      9     -14.7246      2.00000
     10     -14.6539      2.00000
     11     -14.6381      2.00000
     12     -14.6296      2.00000
     13     -14.5870      2.00000
     14     -14.5733      2.00000
     15     -14.5101      2.00000
     16     -14.5075      2.00000
     17     -14.5019      2.00000
     18     -14.4293      2.00000
     19      -2.8963      2.00000
     20      -2.5641      2.00000
     21      -2.3229      2.00000
     22      -2.3075      2.00000
     23      -2.2804      2.00000
     24      -2.2351      2.00000
     25      -2.2198      2.00000
     26      -2.1784      2.00000
     27      -2.0701      2.00000
     28      -2.0318      2.00000
     29      -1.9474      2.00000
     30      -1.9220      2.00000
     31      -1.8960      2.00000
     32      -1.8851      2.00000
     33      -1.8392      2.00000
     34      -1.7600      2.00000
     35      -1.6463      2.00000
     36      -1.6056      2.00000
     37      -1.5858      2.00000
     38      -1.3598      2.00000
     39      -1.3550      2.00000
     40      -1.2743      2.00000
     41      -1.2677      2.00000
     42      -1.1913      2.00000
     43      -1.1847      2.00000
     44      -1.1557      2.00000
     45      -1.1220      2.00000
     46      -1.0717      2.00000
     47      -1.0579      2.00000
     48      -1.0540      2.00000
     49      -0.8992      2.00000
     50      -0.8827      2.00000
     51      -0.6760      2.00000
     52      -0.4696      2.00000
     53      -0.2672      2.00000
     54      -0.0022      2.00000
     55       0.0772      2.00000
     56       0.2016      2.00000
     57       0.2131      2.00000
     58       0.2182      2.00000
     59       0.2747      2.00000
     60       0.4076      2.00000
     61       0.5306      2.00000
     62       0.5707      2.00000
     63       0.5710      2.00000
     64       0.5803      2.00000
     65       0.6592      2.00000
     66       0.8058      2.00000
     67       0.8307      2.00000
     68       1.0408      2.00000
     69       1.0553      2.00000
     70       1.0838      2.00000
     71       1.1844      2.00000
     72       1.2991      2.00000
     73       4.3317      2.00000
     74       4.7454      2.00000
     75       4.9579      2.00000
     76       5.0997      1.93772
     77       5.1354      1.60760
     78       5.2057      0.25704
     79       5.2303      0.06731
     80       5.3224      0.00001
     81       5.4443      0.00000
     82       5.4445      0.00000
     83       5.4684      0.00000
     84       5.4765      0.00000
     85       5.5341      0.00000
     86       5.6187      0.00000
     87       5.6229      0.00000
     88       5.6474      0.00000
     89       5.6678      0.00000
     90       5.6817      0.00000
     91       5.6991      0.00000
     92       5.7408      0.00000
     93       5.7604      0.00000
     94       5.7727      0.00000
     95       5.9121      0.00000
     96       5.9451      0.00000

 k-point     3 :       0.2222    0.0000    0.2500
  band No.  band energies     occupation 
      1     -15.6938      2.00000
      2     -15.5534      2.00000
      3     -15.2822      2.00000
      4     -14.9876      2.00000
      5     -14.8497      2.00000
      6     -14.8032      2.00000
      7     -14.7784      2.00000
      8     -14.7661      2.00000
      9     -14.7200      2.00000
     10     -14.6744      2.00000
     11     -14.6609      2.00000
     12     -14.6582      2.00000
     13     -14.5951      2.00000
     14     -14.5949      2.00000
     15     -14.5830      2.00000
     16     -14.5347      2.00000
     17     -14.5027      2.00000
     18     -14.4672      2.00000
     19      -2.7817      2.00000
     20      -2.5867      2.00000
     21      -2.5233      2.00000
     22      -2.4346      2.00000
     23      -2.3203      2.00000
     24      -2.2974      2.00000
     25      -2.2724      2.00000
     26      -2.1865      2.00000
     27      -2.1582      2.00000
     28      -2.1472      2.00000
     29      -2.0456      2.00000
     30      -1.9008      2.00000
     31      -1.8986      2.00000
     32      -1.8571      2.00000
     33      -1.8047      2.00000
     34      -1.7182      2.00000
     35      -1.7135      2.00000
     36      -1.4232      2.00000
     37      -1.4055      2.00000
     38      -1.3685      2.00000
     39      -1.3027      2.00000
     40      -1.2327      2.00000
     41      -1.2037      2.00000
     42      -1.2002      2.00000
     43      -1.1891      2.00000
     44      -1.1724      2.00000
[...]
     47      -0.7830      2.00000
     48      -0.7161      2.00000
     49      -0.6964      2.00000
     50      -0.5824      2.00000
     51      -0.5310      2.00000
     52      -0.3343      2.00000
     53      -0.2406      2.00000
     54      -0.2380      2.00000
     55      -0.0261      2.00000
     56      -0.0030      2.00000
     57       0.0514      2.00000
     58       0.1779      2.00000
     59       0.1809      2.00000
     60       0.2811      2.00000
     61       0.3291      2.00000
     62       0.3334      2.00000
     63       0.4322      2.00000
     64       0.4997      2.00000
     65       0.6351      2.00000
     66       0.6854      2.00000
     67       0.7275      2.00000
     68       0.8752      2.00000
     69       0.9765      2.00000
     70       0.9877      2.00000
     71       1.0752      2.00000
     72       1.1010      2.00000
     73       4.2886      2.00000
     74       4.3498      2.00000
     75       4.4446      2.00000
     76       4.4793      2.00000
     77       4.4866      2.00000
     78       4.5069      2.00000
     79       5.2723      0.04037
     80       5.3326      0.00017
     81       5.3344      0.00014
     82       5.4001      0.00000
     83       5.5128      0.00000
     84       5.5171      0.00000
     85       5.7939      0.00000
     86       5.8068      0.00000
     87       5.8407      0.00000
     88       5.9244      0.00000
     89       5.9515      0.00000
     90       5.9757      0.00000
     91       6.0568      0.00000
     92       6.1284      0.00000
     93       6.2033      0.00000
     94       6.2406      0.00000
     95       6.2697      0.00000
     96       6.2890      0.00000

 k-point    19 :       0.3333    0.3333    0.2500
  band No.  band energies     occupation 
      1     -15.0871      2.00000
      2     -15.0871      2.00000
      3     -15.0871      2.00000
      4     -15.0476      2.00000
      5     -15.0476      2.00000
      6     -15.0476      2.00000
      7     -14.8349      2.00000
      8     -14.8349      2.00000
      9     -14.8349      2.00000
     10     -14.7313      2.00000
     11     -14.7313      2.00000
     12     -14.7313      2.00000
     13     -14.6231      2.00000
     14     -14.6231      2.00000
     15     -14.6231      2.00000
     16     -14.5590      2.00000
     17     -14.5590      2.00000
     18     -14.5590      2.00000
     19      -2.5453      2.00000
     20      -2.5453      2.00000
     21      -2.5453      2.00000
     22      -2.4990      2.00000
     23      -2.4990      2.00000
     24      -2.4990      2.00000
     25      -2.1584      2.00000
     26      -2.1584      2.00000
     27      -2.1584      2.00000
     28      -2.1276      2.00000
     29      -2.1276      2.00000
     30      -2.1276      2.00000
     31      -1.8408      2.00000
     32      -1.8408      2.00000
     33      -1.8408      2.00000
     34      -1.7008      2.00000
     35      -1.7008      2.00000
     36      -1.7008      2.00000
     37      -1.1466      2.00000
     38      -1.1466      2.00000
     39      -1.1466      2.00000
     40      -1.0966      2.00000
     41      -1.0966      2.00000
     42      -1.0966      2.00000
     43      -0.9450      2.00000
     44      -0.9450      2.00000
     45      -0.9450      2.00000
     46      -0.7964      2.00000
     47      -0.7964      2.00000
     48      -0.7964      2.00000
     49      -0.6472      2.00000
     50      -0.6472      2.00000
     51      -0.6472      2.00000
     52      -0.2801      2.00000
     53      -0.2801      2.00000
     54      -0.2801      2.00000
     55       0.0556      2.00000
     56       0.0556      2.00000
     57       0.0556      2.00000
     58       0.1661      2.00000
     59       0.1661      2.00000
     60       0.1661      2.00000
     61       0.4761      2.00000
     62       0.4761      2.00000
     63       0.4761      2.00000
     64       0.5240      2.00000
     65       0.5240      2.00000
     66       0.5240      2.00000
     67       0.8526      2.00000
     68       0.8526      2.00000
     69       0.8526      2.00000
     70       1.0925      2.00000
     71       1.0925      2.00000
     72       1.0925      2.00000
     73       4.2992      2.00000
     74       4.2992      2.00000
     75       4.2992      2.00000
     76       4.4488      2.00000
     77       4.4488      2.00000
     78       4.4488      2.00000
     79       5.3316      0.00019
     80       5.3316      0.00019
     81       5.3316      0.00019
     82       5.4386      0.00000
     83       5.4386      0.00000
     84       5.4386      0.00000
     85       5.8813      0.00000
     86       5.8813      0.00000
     87       5.8813      0.00000
     88       5.9414      0.00000
     89       5.9414      0.00000
     90       5.9414      0.00000
     91       6.2062      0.00000
     92       6.2062      0.00000
     93       6.2062      0.00000
     94       6.2263      0.00000
     95       6.2263      0.00000
     96       6.2263      0.00000


--------------------------------------------------------------------------------------------------------


 soft charge-density along one line, spin component           1
         0         1         2         3         4         5         6         7         8         9
 total charge-density along one line
 
 pseudopotential strength for first ion, spin component:           1
 -3.500   0.007   0.000   0.001  -0.000  -3.479   0.008   0.000
  0.007  -3.422  -0.000   0.000   0.001   0.008  -3.387  -0.000
  0.000  -0.000  -3.385   0.000  -0.000   0.000  -0.000  -3.343
  0.001   0.000   0.000  -3.422  -0.007   0.001   0.000   0.000
 -0.000   0.001  -0.000  -0.007  -3.500  -0.000   0.001  -0.000
 -3.479   0.008   0.000   0.001  -0.000  -3.332   0.009   0.000
  0.008  -3.387  -0.000   0.000   0.001   0.009  -3.223  -0.000
  0.000  -0.000  -3.343   0.000  -0.000   0.000  -0.000  -3.171
  0.001   0.000   0.000  -3.387  -0.008   0.001   0.000   0.000
 -0.000   0.001  -0.000  -0.008  -3.479  -0.000   0.001  -0.000
  0.000  -0.000  -0.018  -0.000  -0.000   0.000  -0.000  -0.022
 -0.000   0.000   0.037   0.000   0.000  -0.000   0.000   0.044
 -0.001  -0.017  -0.000  -0.000   0.003  -0.001  -0.019  -0.000
 -0.000   0.000  -0.027  -0.000  -0.000  -0.000   0.000  -0.031
  0.003  -0.000  -0.000  -0.017   0.001   0.004  -0.000  -0.000
 total augmentation occupancy for first ion, spin component:           1
  6.448  -4.025  -0.000   0.358  -0.000  -4.444   2.968  -0.000  -0.243   0.000  -0.000   0.000  -0.265   0.000   0.141
 -4.025   8.565  -0.000  -0.000   0.358   2.967  -6.013   0.000   0.000  -0.241  -0.000  -0.000   0.073  -0.000   0.024
 -0.000  -0.000   4.080  -0.000  -0.000   0.000   0.000  -2.432   0.000   0.000  -0.100  -0.014  -0.000  -0.423  -0.000
  0.358   0.000  -0.000   8.565   4.025  -0.241  -0.000   0.000  -6.013  -2.967   0.000   0.000  -0.024  -0.000   0.073
 -0.000   0.358  -0.000   4.025   6.448  -0.000  -0.243   0.000  -2.968  -4.444   0.000   0.000   0.141   0.000   0.265
 -4.444   2.967   0.000  -0.241  -0.000   3.177  -2.145  -0.000   0.169  -0.000   0.000   0.000   0.193  -0.000  -0.103
  2.968  -6.013   0.000  -0.000  -0.243  -2.145   4.298  -0.000   0.000   0.169   0.000  -0.000  -0.051  -0.000  -0.011
 -0.000   0.000  -2.432   0.000   0.000   0.000  -0.000   1.711  -0.000  -0.000   0.118   0.011   0.000   0.300   0.000
 -0.243   0.000   0.000  -6.013  -2.968   0.169  -0.000  -0.000   4.298   2.145   0.000   0.000   0.011   0.000  -0.051
  0.000  -0.241   0.000  -2.967  -4.444  -0.000   0.169  -0.000   2.145   3.177  -0.000  -0.000  -0.103  -0.000  -0.193
  0.000  -0.000  -0.100  -0.000   0.000  -0.000   0.000   0.118   0.000  -0.000   1.976   0.142  -0.000  -0.038   0.000
 -0.000   0.000  -0.014   0.000   0.000  -0.000   0.000   0.011   0.000  -0.000   0.142   0.014  -0.000  -0.004   0.000
 -0.265   0.073  -0.000  -0.024   0.141   0.193  -0.051   0.000   0.011  -0.103  -0.000  -0.000   0.455   0.000   0.000
  0.000  -0.000  -0.423  -0.000   0.000  -0.000  -0.000   0.300   0.000  -0.000  -0.038  -0.004   0.000   0.441   0.000
  0.141   0.024  -0.000   0.073   0.265  -0.103  -0.011   0.000  -0.051  -0.193  -0.000   0.000  -0.000  -0.000   0.455


------------------------ aborting loop because EDIFF is reached ----------------------------------------


    CHARGE:  cpu time    0.1253: real time    0.1254
    FORLOC:  cpu time    0.0059: real time    0.0059
    FORNL :  cpu time    0.9758: real time    0.9765
    STRESS:  cpu time    1.7258: real time    1.7273
    FORCOR:  cpu time    0.0267: real time    0.0267
    FORHAR:  cpu time    0.0097: real time    0.0097
    MIXING:  cpu time    0.0009: real time    0.0009
    OFIELD:  cpu time    0.0000: real time    0.0000

  FORCE on cell =-STRESS in cart. coord.  units (eV):
  Direction    XX          YY          ZZ          XY          YZ          ZX
  --------------------------------------------------------------------------------------
  Alpha Z   739.05073   739.05073   739.05073
  Ewald   -2509.29955 -2509.29955 -2555.77727     0.00000    -0.00000    -0.00000
  Hartree   766.03487   766.03487   785.15482    -0.00000    -0.00000    -0.00000
  E(xc)    -736.61275  -736.61272  -742.96730    -0.00000    -0.00000     0.00000
  Local    -686.36414  -686.36279  -671.99462    -0.00000     0.00000    -0.00000
  n-local  -452.22767  -447.81204  -467.53747     2.88114    -0.08853     0.43574
  augment   186.46532   186.46430   195.09716     0.00000     0.00000     0.00000
  Kinetic  2690.06744  2686.27791  2721.25213    -1.83230     1.67656    -2.51294
  Fock        0.00000     0.00000     0.00000     0.00000     0.00000     0.00000
  -------------------------------------------------------------------------------------
  Total      -2.57252    -2.57252     2.27816     0.00000    -0.00000     0.00000
  in kB     -13.24590   -13.24590    11.73024     0.00000    -0.00000     0.00000
  external pressure =       -4.92 kB  Pullay stress =        0.00 kB


 VOLUME and BASIS-vectors are now :
 -----------------------------------------------------------------------------
  energy-cutoff  :      400.00
  volume of cell :      311.16
      direct lattice vectors                 reciprocal lattice vectors
     2.553415321 -4.422645069  0.000000000     0.195816167 -0.113054517  0.000000000
     2.553415321  4.422645069  0.000000000     0.195816167  0.113054517  0.000000000
     0.000000000  0.000000000 13.777009152     0.000000000  0.000000000  0.072584694

  length of vectors
     5.106830642  5.106830642 13.777009152     0.226109033  0.226109033  0.072584694


 FORCES acting on ions
    electron-ion (+dipol)            ewald-force                    non-local-force                 convergence-correction
 -----------------------------------------------------------------------------------------------
   -.490E-06 0.292E-07 -.234E+02   -.607E-13 0.138E-10 0.244E+02   0.429E-17 0.948E-17 -.100E+01   0.207E-08 -.370E-09 0.281E-04
   -.446E-06 -.227E-07 0.234E+02   -.526E-13 0.365E-11 -.244E+02   -.166E-16 -.436E-17 0.100E+01   0.207E-08 0.370E-09 -.281E-04
   0.490E-06 -.292E-07 0.234E+02   -.733E-14 0.102E-10 -.244E+02   0.328E-17 -.124E-16 0.100E+01   -.207E-08 0.370E-09 -.281E-04
   0.446E-06 0.227E-07 -.234E+02   -.119E-13 -.102E-10 0.244E+02   -.769E-17 0.139E-16 -.100E+01   -.207E-08 -.370E-09 0.281E-04
   -.490E-06 0.292E-07 -.234E+02   -.393E-13 -.365E-11 0.244E+02   0.574E-17 0.408E-17 -.100E+01   0.207E-08 -.370E-09 0.281E-04
   -.446E-06 -.227E-07 0.234E+02   -.877E-13 -.138E-10 -.244E+02   -.172E-16 -.532E-17 0.100E+01   0.207E-08 0.370E-09 -.281E-04
   0.490E-06 -.292E-07 0.234E+02   0.782E-13 0.366E-11 -.244E+02   -.156E-17 0.111E-18 0.100E+01   -.207E-08 0.370E-09 -.281E-04
   0.446E-06 0.227E-07 -.234E+02   0.560E-13 0.137E-10 0.244E+02   -.198E-17 0.677E-17 -.100E+01   -.207E-08 -.370E-09 0.281E-04
   -.490E-06 0.292E-07 -.234E+02   0.249E-13 -.102E-10 0.244E+02   -.331E-17 0.941E-17 -.100E+01   0.207E-08 -.370E-09 0.281E-04
   -.446E-06 -.227E-07 0.234E+02   -.142E-13 0.102E-10 -.244E+02   -.158E-16 0.567E-17 0.100E+01   0.207E-08 0.370E-09 -.281E-04
   0.490E-06 -.292E-07 0.234E+02   0.904E-13 -.138E-10 -.244E+02   -.838E-17 -.102E-16 0.100E+01   -.207E-08 0.370E-09 -.281E-04
   0.446E-06 0.227E-07 -.234E+02   0.426E-13 -.368E-11 0.244E+02   -.742E-17 -.494E-17 -.100E+01   -.207E-08 -.370E-09 0.281E-04
   -.166E+02 0.288E+02 0.815E-07   0.188E+02 -.326E+02 0.284E-11   -.222E+01 0.385E+01 -.401E-18   -.257E-04 0.444E-04 0.128E-09
   -.166E+02 -.288E+02 -.170E-06   0.188E+02 0.326E+02 -.302E-11   -.222E+01 -.385E+01 -.338E-17   -.257E-04 -.444E-04 -.131E-09
   0.332E+02 -.820E-07 -.128E-08   -.377E+02 0.313E-15 -.214E-13   0.444E+01 0.141E-16 0.102E-17   0.515E-04 -.187E-13 -.167E-11
   0.166E+02 -.288E+02 -.815E-07   -.188E+02 0.326E+02 -.347E-10   0.222E+01 -.385E+01 -.371E-18   0.257E-04 -.444E-04 -.129E-09
   0.166E+02 0.288E+02 0.170E-06   -.188E+02 -.326E+02 -.379E-10   0.222E+01 0.385E+01 0.189E-17   0.257E-04 0.444E-04 0.130E-09
   -.332E+02 0.821E-07 0.123E-08   0.377E+02 -.845E-11 -.477E-10   -.444E+01 0.273E-17 -.120E-17   -.515E-04 0.443E-14 0.612E-12
   -.166E+02 0.288E+02 0.814E-07   0.188E+02 -.326E+02 -.384E-10   -.222E+01 0.385E+01 -.337E-18   -.257E-04 0.444E-04 0.130E-09
   -.166E+02 -.288E+02 -.170E-06   0.188E+02 0.326E+02 -.362E-10   -.222E+01 -.385E+01 -.176E-17   -.257E-04 -.444E-04 -.129E-09
   0.332E+02 -.820E-07 -.133E-08   -.377E+02 -.843E-11 -.477E-10   0.444E+01 -.156E-16 0.808E-18   0.515E-04 -.167E-13 0.471E-12
   0.166E+02 -.288E+02 -.814E-07   -.188E+02 0.326E+02 0.385E-10   0.222E+01 -.385E+01 -.226E-18   0.257E-04 -.444E-04 -.130E-09
   0.166E+02 0.288E+02 0.170E-06   -.188E+02 -.326E+02 0.332E-10   0.222E+01 0.385E+01 0.947E-19   0.257E-04 0.444E-04 0.128E-09
   -.332E+02 0.820E-07 0.132E-08   0.377E+02 0.788E-11 0.486E-10   -.444E+01 -.142E-16 -.329E-17   -.515E-04 0.257E-13 -.956E-12
   -.166E+02 0.288E+02 0.815E-07   0.188E+02 -.326E+02 0.346E-10   -.222E+01 0.385E+01 0.144E-17   -.257E-04 0.444E-04 0.130E-09
   -.166E+02 -.288E+02 -.170E-06   0.188E+02 0.326E+02 0.390E-10   -.222E+01 -.385E+01 -.107E-17   -.257E-04 -.444E-04 -.128E-09
   0.332E+02 -.820E-07 -.125E-08   -.377E+02 0.790E-11 0.484E-10   0.444E+01 0.162E-16 0.105E-17   0.515E-04 -.324E-13 0.102E-11
   0.166E+02 -.288E+02 -.815E-07   -.188E+02 0.326E+02 -.360E-11   0.222E+01 -.385E+01 0.146E-17   0.257E-04 -.444E-04 -.129E-09
   0.166E+02 0.288E+02 0.170E-06   -.188E+02 -.326E+02 0.367E-11   0.222E+01 0.385E+01 0.425E-17   0.257E-04 0.444E-04 0.130E-09
   -.332E+02 0.820E-07 0.129E-08   0.377E+02 0.661E-15 0.711E-13   -.444E+01 -.527E-17 -.118E-17   -.515E-04 0.485E-13 0.566E-12
 -----------------------------------------------------------------------------------------------
   0.920E-11 0.889E-11 -.521E-10   -.355E-13 -.644E-14 -.192E-12   -.266E-14 -.527E-17 -.119E-17   -.173E-12 -.216E-12 -.774E-13
 
 
 POSITION                                       TOTAL-FORCE (eV/Angst)
 -----------------------------------------------------------------------------------
      2.55342      1.47422      0.17189         0.000000      0.000000     -0.004703
     -0.00000      0.00000      2.12428         0.000000      0.000000      0.004703
      2.55342      1.47422      4.42045         0.000000      0.000000      0.004703
      2.55342     -1.47422      2.46806         0.000000      0.000000     -0.004703
     -0.00000      0.00000      4.76422         0.000000      0.000000     -0.004703
      2.55342     -1.47422      6.71662         0.000000      0.000000      0.004703
     -0.00000      0.00000      9.01279         0.000000      0.000000      0.004703
      2.55342      1.47422      7.06039         0.000000      0.000000     -0.004703
      2.55342     -1.47422      9.35656         0.000000      0.000000     -0.004703
      2.55342      1.47422     11.30895         0.000000      0.000000      0.004703
      2.55342     -1.47422     13.60512         0.000000      0.000000      0.004703
     -0.00000      0.00000     11.65273         0.000000      0.000000     -0.004703
      0.79840     -1.38287      3.44425        -0.000352      0.000610     -0.000000
      0.79840      1.38287      3.44425        -0.000352     -0.000610      0.000000
      3.51003      0.00000      3.44425         0.000704      0.000000      0.000000
      1.75501     -0.09134      1.14808         0.000352     -0.000610      0.000000
      1.75501     -2.85709      1.14808         0.000352      0.000610     -0.000000
      4.15022     -1.47422      1.14808        -0.000704      0.000000     -0.000000
      3.35182     -2.85709      8.03659        -0.000352      0.000610     -0.000000
      3.35182     -0.09134      8.03659        -0.000352     -0.000610      0.000000
      0.95661     -1.47422      8.03659         0.000704      0.000000      0.000000
      1.75501      2.85709      5.74042         0.000352     -0.000610      0.000000
      1.75501      0.09134      5.74042         0.000352      0.000610      0.000000
      4.15022      1.47422      5.74042        -0.000704      0.000000     -0.000000
      3.35182      0.09134     12.62893        -0.000352      0.000610      0.000000
      3.35182      2.85709     12.62893        -0.000352     -0.000610     -0.000000
      0.95661      1.47422     12.62893         0.000704      0.000000      0.000000
      1.75501     -3.03977     10.33276         0.000352     -0.000610      0.000000
      1.75501      3.03977     10.33276         0.000352      0.000610     -0.000000
      1.59680     -0.00000     10.33276        -0.000704      0.000000     -0.000000
 -----------------------------------------------------------------------------------
    total drift:                                0.000000      0.000000     -0.000000


--------------------------------------------------------------------------------------------------------



  FREE ENERGIE OF THE ION-ELECTRON SYSTEM (eV)
  ---------------------------------------------------
  free  energy   TOTEN  =      -267.80479967 eV

  energy  without entropy=     -267.79263790  energy(sigma->0) =     -267.79871879
 
 d Force = 0.4395372E-03[-0.195E-04, 0.899E-03]  d Energy = 0.4357674E-03 0.377E-05
 d Force =-0.1292505E+01[-0.130E+01,-0.129E+01]  d Ewald  =-0.1292500E+01-0.542E-05


--------------------------------------------------------------------------------------------------------


    POTLOK:  cpu time    0.0280: real time    0.0280


--------------------------------------------------------------------------------------------------------




--------------------------------------------------------------------------------------------------------


  
 reached required accuracy - stopping structural energy minimisation
 writing wavefunctions
     LOOP+:  cpu time   24.4540: real time   24.5100
    4ORBIT:  cpu time    0.0000: real time    0.0000

 total amount of memory used by VASP MPI-rank0    80901. kBytes
=======================================================================

   base      :      30000. kBytes
   nonl-proj :      28627. kBytes
   fftplans  :       2634. kBytes
   grid      :       8343. kBytes
   one-center:        324. kBytes
   wavefun   :      10973. kBytes
 
  
  
 General timing and accounting informations for this job:
 ========================================================
  
                  Total CPU time used (sec):      164.774
                            User time (sec):      163.435
                          System time (sec):        1.339
                         Elapsed time (sec):      165.321
  
                   Maximum memory used (kb):      208348.
                   Average memory used (kb):           0.
  
                          Minor page faults:       184510
                          Major page faults:            0
                 Voluntary context switches:          356
