 running on   16 total cores
 distrk:  each k-point on   16 cores,    1 groups
 distr:  one band on    1 cores,   16 groups
 using from now: INCAR     
 vasp.5.4.4.18Apr17-6-g9f103f2a35 (build Jul 11 2019 11:52:51) complex          
  
 POSCAR found type information on POSCAR  Ti O 
 POSCAR found :  2 types and      30 ions
 scaLAPACK will be used

 ----------------------------------------------------------------------------- 
|                                                                             |
|           W    W    AA    RRRRR   N    N  II  N    N   GGGG   !!!           |
|           W    W   A  A   R    R  NN   N  II  NN   N  G    G  !!!           |
|           W    W  A    A  R    R  N N  N  II  N N  N  G       !!!           |
|           W WW W  AAAAAA  RRRRR   N  N N  II  N  N N  G  GGG   !            |
|           WW  WW  A    A  R   R   N   NN  II  N   NN  G    G                |
|           W    W  A    A  R    R  N    N  II  N    N   GGGG   !!!           |
|                                                                             |
|      For optimal performance we recommend to set                            |
|        NCORE= 4 - approx SQRT( number of cores)                             |
|      NCORE specifies how many cores store one orbital (NPAR=cpu/NCORE).     |
|      This setting can  greatly improve the performance of VASP for DFT.     |
|      The default,   NCORE=1            might be grossly inefficient         |
|      on modern multi-core architectures or massively parallel machines.     |
|      Do your own testing !!!!                                               |
|      Unfortunately you need to use the default for GW and RPA calculations. |
|      (for HF NCORE is supported but not extensively tested yet)             |
|                                                                             |
 ----------------------------------------------------------------------------- 


 ----------------------------------------------------------------------------- 
|                                                                             |
|  ADVICE TO THIS USER RUNNING 'VASP/VAMP'   (HEAR YOUR MASTER'S VOICE ...):  |
|                                                                             |
|      You have a (more or less) 'large supercell' and for larger cells       |
|      it might be more efficient to use real space projection opertators     |
|      So try LREAL= Auto  in the INCAR   file.                               |
|      Mind:          For very  accurate calculation you might also keep the  |
|      reciprocal projection scheme          (i.e. LREAL=.FALSE.)             |
|                                                                             |
 ----------------------------------------------------------------------------- 

 LDA part: xc-table for Pade appr. of Perdew
 POSCAR, INCAR and KPOINTS ok, starting setup
 FFT: planning ...
 WAVECAR not read
 entering main loop
       N       E                     dE             d eps       ncg     rms          rms(c)
DAV:   1     0.185765897706E+04    0.18577E+04   -0.54719E+04  3648   0.132E+03
DAV:   2     0.290498658687E+03   -0.15672E+04   -0.15055E+04  3712   0.376E+02
DAV:   3    -0.288855518820E+03   -0.57935E+03   -0.57220E+03  5040   0.217E+02
DAV:   4    -0.330455034327E+03   -0.41600E+02   -0.41362E+02  4928   0.712E+01
DAV:   5    -0.331753991419E+03   -0.12990E+01   -0.12942E+01  5056   0.119E+01    0.816E+01
DAV:   6    -0.270198486889E+03    0.61556E+02   -0.42302E+02  5056   0.666E+01    0.321E+01
DAV:   7    -0.268704519153E+03    0.14940E+01   -0.39519E+01  5456   0.248E+01    0.211E+01
DAV:   8    -0.267950174707E+03    0.75434E+00   -0.79590E+00  4304   0.124E+01    0.617E+00
DAV:   9    -0.267797832555E+03    0.15234E+00   -0.70208E-01  4448   0.387E+00    0.875E-01
DAV:  10    -0.267789140770E+03    0.86918E-02   -0.74555E-02  4976   0.101E+00    0.539E-01
DAV:  11    -0.267786637115E+03    0.25037E-02   -0.20613E-02  4544   0.493E-01    0.156E-01
DAV:  12    -0.267786696522E+03   -0.59407E-04   -0.47014E-03  5712   0.286E-01    0.117E-01
DAV:  13    -0.267786574892E+03    0.12163E-03   -0.17912E-03  4896   0.171E-01    0.631E-02
DAV:  14    -0.267786552853E+03    0.22039E-04   -0.13896E-04  4592   0.528E-02    0.612E-03
DAV:  15    -0.267786553373E+03   -0.51938E-06   -0.47966E-06  4928   0.785E-03    0.328E-03
DAV:  16    -0.267786553455E+03   -0.82024E-07   -0.15268E-06  4576   0.395E-03    0.260E-03
DAV:  17    -0.267786553333E+03    0.12175E-06   -0.44257E-07  5456   0.268E-03    0.531E-04
DAV:  18    -0.267786553485E+03   -0.15163E-06   -0.55867E-08  3968   0.990E-04    0.489E-04
DAV:  19    -0.267786553470E+03    0.14443E-07   -0.11167E-08  2736   0.517E-04    0.118E-04
DAV:  20    -0.267786553464E+03    0.65447E-08   -0.19814E-09  2736   0.197E-04
   1 F= -.26778655E+03 E0= -.26778070E+03  d E =-.267787E+03
 curvature:   0.00 expect dE= 0.000E+00 dE for cont linesearch  0.000E+00
 trial: gam= 0.00000 g(F)=  0.160E-01 g(S)=  0.000E+00 ort = 0.000E+00 (trialstep = 0.100E+01)
 search vector abs. value=  0.160E-01
 bond charge predicted
       N       E                     dE             d eps       ncg     rms          rms(c)
DAV:   1    -0.267799169965E+03   -0.12616E-01   -0.64959E-01  3648   0.229E+00    0.279E-01
DAV:   2    -0.267798872784E+03    0.29718E-03   -0.12066E-02  4800   0.384E-01    0.177E-01
DAV:   3    -0.267798143123E+03    0.72966E-03   -0.94124E-04  4544   0.109E-01    0.266E-02
DAV:   4    -0.267798133372E+03    0.97508E-05   -0.76654E-05  5424   0.366E-02    0.120E-02
DAV:   5    -0.267798130275E+03    0.30969E-05   -0.41510E-06  5008   0.848E-03    0.507E-03
DAV:   6    -0.267798129550E+03    0.72512E-06   -0.12765E-06  4976   0.386E-03    0.124E-03
DAV:   7    -0.267798129547E+03    0.35343E-08   -0.17944E-07  4976   0.159E-03    0.604E-04
DAV:   8    -0.267798129573E+03   -0.25879E-07   -0.19112E-08  2832   0.618E-04    0.335E-04
DAV:   9    -0.267798129577E+03   -0.42746E-08   -0.69902E-09  2704   0.371E-04
   2 F= -.26779813E+03 E0= -.26779213E+03  d E =-.115761E-01
 trial-energy change:   -0.011576  1 .order   -0.011638   -0.015996   -0.007280
 step:   1.9087(harm=  1.8352)  dis= 0.01507  next Energy=  -267.801391 (dE=-0.148E-01)
 bond charge predicted
       N       E                     dE             d eps       ncg     rms          rms(c)
DAV:   1    -0.267801939734E+03   -0.38102E-02   -0.53503E-01  3648   0.208E+00    0.249E-01
DAV:   2    -0.267801734967E+03    0.20477E-03   -0.99951E-03  4832   0.347E-01    0.158E-01
DAV:   3    -0.267801141869E+03    0.59310E-03   -0.76963E-04  4560   0.981E-02    0.230E-02
DAV:   4    -0.267801134716E+03    0.71537E-05   -0.59015E-05  5392   0.321E-02    0.102E-02
DAV:   5    -0.267801132384E+03    0.23318E-05   -0.32765E-06  5120   0.745E-03    0.452E-03
DAV:   6    -0.267801131769E+03    0.61496E-06   -0.10496E-06  4720   0.353E-03    0.108E-03
DAV:   7    -0.267801131777E+03   -0.82091E-08   -0.12951E-07  4800   0.136E-03    0.504E-04
DAV:   8    -0.267801131799E+03   -0.21751E-07   -0.10275E-08  2736   0.458E-04    0.267E-04
DAV:   9    -0.267801131801E+03   -0.18208E-08   -0.42130E-09  2688   0.291E-04
   3 F= -.26780113E+03 E0= -.26779492E+03  d E =-.145783E-01
 curvature:  -0.91 expect dE=-0.384E-02 dE for cont linesearch -0.160E-04
 trial: gam= 0.29690 g(F)=  0.422E-02 g(S)=  0.000E+00 ort =-0.531E-03 (trialstep = 0.118E+01)
 search vector abs. value=  0.531E-02
 bond charge predicted
       N       E                     dE             d eps       ncg     rms          rms(c)
DAV:   1    -0.267799778308E+03    0.13535E-02   -0.18146E+00  3648   0.512E+00    0.202E-01
DAV:   2    -0.267804704308E+03   -0.49260E-02   -0.52706E-02  4480   0.935E-01    0.120E-01
DAV:   3    -0.267804533562E+03    0.17075E-03   -0.83664E-04  4848   0.107E-01    0.869E-02
DAV:   4    -0.267804350556E+03    0.18301E-03   -0.89596E-04  4256   0.127E-01    0.147E-02
DAV:   5    -0.267804364435E+03   -0.13880E-04   -0.24292E-04  4192   0.554E-02    0.128E-02
DAV:   6    -0.267804364614E+03   -0.17846E-06   -0.66196E-06  5040   0.101E-02    0.695E-03
DAV:   7    -0.267804363846E+03    0.76748E-06   -0.18886E-06  4272   0.671E-03    0.666E-04
DAV:   8    -0.267804363925E+03   -0.79321E-07   -0.78594E-07  4352   0.307E-03    0.493E-04
DAV:   9    -0.267804363915E+03    0.10295E-07   -0.22009E-08  3216   0.558E-04    0.406E-04
DAV:  10    -0.267804363906E+03    0.95151E-08   -0.66156E-09  2688   0.401E-04
   4 F= -.26780436E+03 E0= -.26779821E+03  d E =-.323211E-02
 trial-energy change:   -0.003232  1 .order   -0.003237   -0.004799   -0.001675
 step:   1.8156(harm=  1.8156)  dis= 0.00655  next Energy=  -267.804818 (dE=-0.369E-02)
 bond charge predicted
       N       E                     dE             d eps       ncg     rms          rms(c)
DAV:   1    -0.267803478775E+03    0.88514E-03   -0.52201E-01  3680   0.275E+00    0.108E-01
DAV:   2    -0.267804896732E+03   -0.14180E-02   -0.15170E-02  4480   0.502E-01    0.640E-02
DAV:   3    -0.267804848183E+03    0.48549E-04   -0.24127E-04  4832   0.572E-02    0.469E-02
DAV:   4    -0.267804796533E+03    0.51650E-04   -0.26986E-04  4256   0.697E-02    0.902E-03
DAV:   5    -0.267804799631E+03   -0.30977E-05   -0.72870E-05  4192   0.309E-02    0.650E-03
DAV:   6    -0.267804799768E+03   -0.13734E-06   -0.20033E-06  5008   0.577E-03    0.331E-03
DAV:   7    -0.267804799666E+03    0.10278E-06   -0.19691E-07  4592   0.209E-03    0.867E-04
DAV:   8    -0.267804799673E+03   -0.74106E-08   -0.80486E-08  4240   0.101E-03
   5 F= -.26780480E+03 E0= -.26779872E+03  d E =-.366787E-02
 curvature:  -1.19 expect dE=-0.157E-04 dE for cont linesearch -0.212E-06
 trial: gam=-0.01988 g(F)=  0.132E-04 g(S)=  0.000E+00 ort =-0.308E-04 (trialstep = 0.131E+01)
 search vector abs. value=  0.166E-04
 reached required accuracy - stopping structural energy minimisation
 writing wavefunctions
