<?xml version="1.0" encoding="ISO-8859-1"?>
<modeling>
 <generator>
  <i name="program" type="string">vasp </i>
  <i name="version" type="string">5.4.4.18Apr17-6-g9f103f2a35  </i>
  <i name="subversion" type="string">(build Jul 11 2019 11:52:51) complex            parallel </i>
  <i name="platform" type="string">LinuxIFC </i>
  <i name="date" type="string">2024 08 29 </i>
  <i name="time" type="string">19:22:18 </i>
 </generator>
 <incar>
  <i type="int" name="ISTART">     0</i>
  <i type="string" name="PREC">accurate</i>
  <i type="int" name="ISPIN">     1</i>
  <i type="int" name="NELM">    90</i>
  <i type="int" name="NELMIN">     6</i>
  <i type="int" name="IBRION">     2</i>
  <i name="EDIFF">      0.00000001</i>
  <i name="EDIFFG">     -0.01000000</i>
  <i type="int" name="NSW">   100</i>
  <i type="int" name="ISIF">     2</i>
  <i name="ENCUT">    400.00000000</i>
  <i type="logical" name="LREAL"> F  </i>
  <i type="int" name="ISMEAR">     0</i>
  <i name="SIGMA">      0.05000000</i>
  <i type="logical" name="LWAVE"> T  </i>
  <i type="logical" name="LCHARG"> F  </i>
  <v type="int" name="KPOINT_BSE">    -1     0     0     0</v>
  <i type="int" name="NELM">    90</i>
 </incar>
 <structure name="primitive_cell" >
  <crystal>
   <varray name="basis" >
    <v>      -2.55341532       1.47421502      -4.59233638 </v>
    <v>       2.55341532       1.47421502      -4.59233638 </v>
    <v>       0.00000000      -2.94843005      -4.59233638 </v>
   </varray>
   <i name="volume">    103.72112891 </i>
   <varray name="rec_basis" >
    <v>      -0.19581617       0.11305452      -0.07258469 </v>
    <v>       0.19581617       0.11305452      -0.07258469 </v>
    <v>      -0.00000000      -0.22610903      -0.07258469 </v>
   </varray>
  </crystal>
  <varray name="positions" >
   <v>      -0.34453747      -0.34453747      -0.34453747 </v>
   <v>      -0.43560554       0.25000000      -0.06439446 </v>
   <v>       0.25000000      -0.06439446      -0.43560554 </v>
   <v>      -0.06439446      -0.43560554       0.25000000 </v>
   <v>       0.43560554      -0.25000000       0.06439446 </v>
   <v>       0.06439446       0.43560554      -0.25000000 </v>
   <v>      -0.25000000       0.06439446       0.43560554 </v>
   <v>      -0.15546253      -0.15546253      -0.15546253 </v>
   <v>       0.34453747       0.34453747       0.34453747 </v>
   <v>       0.15546253       0.15546253       0.15546253 </v>
  </varray>
 </structure>
 <varray name="primitive_index" >
  <v type="int" >        1 </v>
  <v type="int" >       16 </v>
  <v type="int" >       17 </v>
  <v type="int" >       18 </v>
  <v type="int" >       25 </v>
  <v type="int" >       27 </v>
  <v type="int" >       26 </v>
  <v type="int" >       10 </v>
  <v type="int" >       11 </v>
  <v type="int" >        4 </v>
 </varray>
 <kpoints>
  <generation param="Monkhorst-Pack">
   <v type="int" name="divisions">       9        9        2 </v>
   <v name="usershift">      0.00000000       0.00000000       0.00000000 </v>
   <v name="genvec1">      0.11111111       0.00000000       0.00000000 </v>
   <v name="genvec2">      0.00000000       0.11111111       0.00000000 </v>
   <v name="genvec3">      0.00000000       0.00000000       0.50000000 </v>
   <v name="shift">      0.00000000       0.00000000       0.50000000 </v>
  </generation>
  <varray name="kpointlist" >
   <v>       0.00000000       0.00000000       0.25000000 </v>
   <v>       0.11111111       0.00000000       0.25000000 </v>
   <v>       0.22222222       0.00000000       0.25000000 </v>
   <v>       0.33333333       0.00000000       0.25000000 </v>
   <v>       0.44444444       0.00000000       0.25000000 </v>
   <v>      -0.44444444      -0.00000000       0.25000000 </v>
   <v>      -0.33333333      -0.00000000       0.25000000 </v>
   <v>      -0.22222222      -0.00000000       0.25000000 </v>
   <v>      -0.11111111      -0.00000000       0.25000000 </v>
   <v>       0.11111111       0.11111111       0.25000000 </v>
   <v>       0.22222222       0.11111111       0.25000000 </v>
   <v>       0.33333333       0.11111111       0.25000000 </v>
   <v>       0.44444444       0.11111111       0.25000000 </v>
   <v>      -0.44444444       0.11111111       0.25000000 </v>
   <v>      -0.33333333       0.11111111       0.25000000 </v>
   <v>       0.22222222       0.22222222       0.25000000 </v>
   <v>       0.33333333       0.22222222       0.25000000 </v>
   <v>       0.44444444       0.22222222       0.25000000 </v>
   <v>       0.33333333       0.33333333       0.25000000 </v>
  </varray>
  <varray name="weights" >
   <v>       0.01234568 </v>
   <v>       0.03703704 </v>
   <v>       0.03703704 </v>
   <v>       0.03703704 </v>
   <v>       0.03703704 </v>
   <v>       0.03703704 </v>
   <v>       0.03703704 </v>
   <v>       0.03703704 </v>
   <v>       0.03703704 </v>
   <v>       0.07407407 </v>
   <v>       0.07407407 </v>
   <v>       0.07407407 </v>
   <v>       0.07407407 </v>
   <v>       0.07407407 </v>
   <v>       0.07407407 </v>
   <v>       0.07407407 </v>
   <v>       0.07407407 </v>
   <v>       0.07407407 </v>
   <v>       0.02469136 </v>
  </varray>
 </kpoints>
 <parameters>
  <separator name="general" >
   <i type="string" name="SYSTEM">unknown system</i>
   <i type="logical" name="LCOMPAT"> F  </i>
  </separator>
  <separator name="electronic" >
   <i type="string" name="PREC">accura</i>
   <i name="ENMAX">    400.00000000</i>
   <i name="ENAUG">    605.39200000</i>
   <i name="EDIFF">      0.00000001</i>
   <i type="int" name="IALGO">    38</i>
   <i type="int" name="IWAVPR">    11</i>
   <i type="int" name="NBANDS">    96</i>
   <i name="NELECT">    156.00000000</i>
   <i type="int" name="TURBO">     0</i>
   <i type="int" name="IRESTART">     0</i>
   <i type="int" name="NREBOOT">     0</i>
   <i type="int" name="NMIN">     0</i>
   <i name="EREF">      0.00000000</i>
   <separator name="electronic smearing" >
    <i type="int" name="ISMEAR">     0</i>
    <i name="SIGMA">      0.05000000</i>
    <i name="KSPACING">      0.50000000</i>
    <i type="logical" name="KGAMMA"> T  </i>
   </separator>
   <separator name="electronic projectors" >
    <i type="logical" name="LREAL"> F  </i>
    <v name="ROPT">      0.00000000      0.00000000</v>
    <i type="int" name="LMAXPAW">  -100</i>
    <i type="int" name="LMAXMIX">     2</i>
    <i type="logical" name="NLSPLINE"> F  </i>
   </separator>
   <separator name="electronic startup" >
    <i type="int" name="ISTART">     0</i>
    <i type="int" name="ICHARG">     2</i>
    <i type="int" name="INIWAV">     1</i>
   </separator>
   <separator name="electronic spin" >
    <i type="int" name="ISPIN">     1</i>
    <i type="logical" name="LNONCOLLINEAR"> F  </i>
    <v name="MAGMOM">      1.00000000      1.00000000      1.00000000      1.00000000      1.00000000      1.00000000      1.00000000      1.00000000      1.00000000      1.00000000      1.00000000      1.00000000      1.00000000      1.00000000      1.00000000      1.00000000      1.00000000      1.00000000      1.00000000      1.00000000
      1.00000000      1.00000000      1.00000000      1.00000000      1.00000000      1.00000000      1.00000000      1.00000000      1.00000000      1.00000000</v>
    <i name="NUPDOWN">     -1.00000000</i>
    <i type="logical" name="LSORBIT"> F  </i>
    <v name="SAXIS">      0.00000000      0.00000000      1.00000000</v>
    <i type="logical" name="LSPIRAL"> F  </i>
    <v name="QSPIRAL">      0.00000000      0.00000000      0.00000000</v>
    <i type="logical" name="LZEROZ"> F  </i>
   </separator>
   <separator name="electronic exchange-correlation" >
    <i type="logical" name="LASPH"> F  </i>
    <i type="logical" name="LMETAGGA"> F  </i>
   </separator>
   <separator name="electronic convergence" >
    <i type="int" name="NELM">    90</i>
    <i type="int" name="NELMDL">    -5</i>
    <i type="int" name="NELMIN">     6</i>
    <i name="ENINI">    400.00000000</i>
    <separator name="electronic convergence detail" >
     <i type="logical" name="LDIAG"> T  </i>
     <i type="logical" name="LSUBROT"> F  </i>
     <i name="WEIMIN">      0.00100000</i>
     <i name="EBREAK">      0.00000000</i>
     <i name="DEPER">      0.30000000</i>
     <i type="int" name="NRMM">     4</i>
     <i name="TIME">      0.40000000</i>
    </separator>
   </separator>
   <separator name="electronic mixer" >
    <i name="AMIX">      0.40000000</i>
    <i name="BMIX">      1.00000000</i>
    <i name="AMIN">      0.10000000</i>
    <i name="AMIX_MAG">      1.60000000</i>
    <i name="BMIX_MAG">      1.00000000</i>
    <separator name="electronic mixer details" >
     <i type="int" name="IMIX">     4</i>
     <i type="logical" name="MIXFIRST"> F  </i>
     <i type="int" name="MAXMIX">   -45</i>
     <i name="WC">    100.00000000</i>
     <i type="int" name="INIMIX">     1</i>
     <i type="int" name="MIXPRE">     1</i>
     <i type="int" name="MREMOVE">     5</i>
    </separator>
   </separator>
   <separator name="electronic dipolcorrection" >
    <i type="logical" name="LDIPOL"> F  </i>
    <i type="logical" name="LMONO"> F  </i>
    <i type="int" name="IDIPOL">     0</i>
    <i name="EPSILON">      1.00000000</i>
    <v name="DIPOL">   -100.00000000   -100.00000000   -100.00000000</v>
    <i name="EFIELD">      0.00000000</i>
   </separator>
  </separator>
  <separator name="grids" >
   <i type="int" name="NGX">    36</i>
   <i type="int" name="NGY">    36</i>
   <i type="int" name="NGZ">    90</i>
   <i type="int" name="NGXF">    72</i>
   <i type="int" name="NGYF">    72</i>
   <i type="int" name="NGZF">   180</i>
   <i type="logical" name="ADDGRID"> F  </i>
  </separator>
  <separator name="ionic" >
   <i type="int" name="NSW">   100</i>
   <i type="int" name="IBRION">     2</i>
   <i type="int" name="MDALGO">     0</i>
   <i type="int" name="ISIF">     2</i>
   <i name="PSTRESS">      0.00000000</i>
   <i name="EDIFFG">     -0.01000000</i>
   <i type="int" name="NFREE">     1</i>
   <i name="POTIM">      0.50000000</i>
   <i name="SMASS">     -3.00000000</i>
   <i name="SCALEE">      1.00000000</i>
  </separator>
  <separator name="ionic md" >
   <i name="TEBEG">      0.00010000</i>
   <i name="TEEND">      0.00010000</i>
   <i type="int" name="NBLOCK">     1</i>
   <i type="int" name="KBLOCK">   100</i>
   <i type="int" name="NPACO">   256</i>
   <i name="APACO">     16.00000000</i>
  </separator>
  <separator name="symmetry" >
   <i type="int" name="ISYM">     2</i>
   <i name="SYMPREC">      0.00001000</i>
  </separator>
  <separator name="dos" >
   <i type="int" name="LORBIT">     0</i>
   <v name="RWIGS">     -1.00000000     -1.00000000</v>
   <i type="int" name="NEDOS">   301</i>
   <i name="EMIN">     10.00000000</i>
   <i name="EMAX">    -10.00000000</i>
   <i name="EFERMI">      0.00000000</i>
  </separator>
  <separator name="writing" >
   <i type="int" name="NWRITE">     2</i>
   <i type="logical" name="LWAVE"> T  </i>
   <i type="logical" name="LDOWNSAMPLE"> F  </i>
   <i type="logical" name="LCHARG"> F  </i>
   <i type="logical" name="LPARD"> F  </i>
   <i type="logical" name="LVTOT"> F  </i>
   <i type="logical" name="LVHAR"> F  </i>
   <i type="logical" name="LELF"> F  </i>
   <i type="logical" name="LOPTICS"> F  </i>
   <v name="STM">      0.00000000      0.00000000      0.00000000      0.00000000      0.00000000      0.00000000      0.00000000</v>
  </separator>
  <separator name="performance" >
   <i type="int" name="NPAR">    16</i>
   <i type="int" name="NSIM">     4</i>
   <i type="int" name="NBLK">    -1</i>
   <i type="logical" name="LPLANE"> T  </i>
   <i type="logical" name="LSCALAPACK"> T  </i>
   <i type="logical" name="LSCAAWARE"> F  </i>
   <i type="logical" name="LSCALU"> F  </i>
   <i type="logical" name="LASYNC"> F  </i>
   <i type="logical" name="LORBITALREAL"> F  </i>
  </separator>
  <separator name="miscellaneous" >
   <i type="int" name="IDIOT">     3</i>
   <i type="int" name="ISPECIAL">     0</i>
   <i type="logical" name="LMUSIC"> F  </i>
   <v name="POMASS">     47.88000000     16.00000000</v>
   <v name="DARWINR">      0.00000000      0.00000000</v>
   <v name="DARWINV">      1.00000000      1.00000000</v>
   <i type="logical" name="LCORR"> T  </i>
  </separator>
  <i type="logical" name="GGA_COMPAT"> T  </i>
  <i type="logical" name="LBERRY"> F  </i>
  <i type="int" name="ICORELEVEL">     0</i>
  <i type="logical" name="LDAU"> F  </i>
  <i type="int" name="I_CONSTRAINED_M">     0</i>
  <separator name="electronic exchange-correlation" >
   <i type="string" name="GGA">--</i>
   <i type="int" name="VOSKOWN">     0</i>
   <i type="logical" name="LHFCALC"> F  </i>
   <i type="string" name="PRECFOCK"></i>
   <i type="logical" name="LSYMGRAD"> F  </i>
   <i type="logical" name="LHFONE"> F  </i>
   <i type="logical" name="LRHFCALC"> F  </i>
   <i type="logical" name="LTHOMAS"> F  </i>
   <i type="logical" name="LMODELHF"> F  </i>
   <i name="ENCUT4O">     -1.00000000</i>
   <i type="int" name="EXXOEP">     0</i>
   <i type="int" name="FOURORBIT">     0</i>
   <i name="AEXX">      0.00000000</i>
   <i name="HFALPHA">      0.00000000</i>
   <i name="MCALPHA">      0.00000000</i>
   <i name="ALDAX">      1.00000000</i>
   <i name="AGGAX">      1.00000000</i>
   <i name="ALDAC">      1.00000000</i>
   <i name="AGGAC">      1.00000000</i>
   <i type="int" name="NKREDX">     1</i>
   <i type="int" name="NKREDY">     1</i>
   <i type="int" name="NKREDZ">     1</i>
   <i type="logical" name="SHIFTRED"> F  </i>
   <i type="logical" name="ODDONLY"> F  </i>
   <i type="logical" name="EVENONLY"> F  </i>
   <i type="int" name="LMAXFOCK">     0</i>
   <i type="int" name="NMAXFOCKAE">     0</i>
   <i type="logical" name="LFOCKAEDFT"> F  </i>
   <i name="HFSCREEN">      0.00000000</i>
   <i name="HFSCREENC">      0.00000000</i>
   <i type="int" name="NBANDSGWLOW">     0</i>
  </separator>
  <separator name="vdW DFT" >
   <i type="logical" name="LUSE_VDW"> F  </i>
   <i name="Zab_VDW">     -0.84910000</i>
   <i name="PARAM1">      0.12340000</i>
   <i name="PARAM2">      1.00000000</i>
   <i name="PARAM3">      0.00000000</i>
  </separator>
  <separator name="model GW" >
   <i type="int" name="MODEL_GW">     0</i>
   <i name="MODEL_EPS0">      6.22326773</i>
   <i name="MODEL_ALPHA">      1.00000000</i>
  </separator>
  <separator name="linear response parameters" >
   <i type="logical" name="LEPSILON"> F  </i>
   <i type="logical" name="LRPA"> F  </i>
   <i type="logical" name="LNABLA"> F  </i>
   <i type="logical" name="LVEL"> F  </i>
   <i type="int" name="KINTER">     0</i>
   <i name="CSHIFT">      0.10000000</i>
   <i name="OMEGAMAX">     -1.00000000</i>
   <i name="DEG_THRESHOLD">      0.00200000</i>
   <i name="RTIME">     -0.10000000</i>
   <i name="WPLASMAI">      0.00000000</i>
   <v name="DFIELD">      0.00000000      0.00000000      0.00000000</v>
   <v name="WPLASMA">      0.00000000      0.00000000      0.00000000      0.00000000      0.00000000      0.00000000      0.00000000      0.00000000      0.00000000</v>
  </separator>
  <separator name="orbital magnetization" >
   <i type="logical" name="NUCIND"> F  </i>
   <v name="MAGPOS">      0.00000000      0.00000000      0.00000000</v>
   <i type="logical" name="LNICSALL"> T  </i>
   <i type="logical" name="ORBITALMAG"> F  </i>
   <i type="logical" name="LMAGBLOCH"> F  </i>
   <i type="logical" name="LCHIMAG"> F  </i>
   <i type="logical" name="LGAUGE"> T  </i>
   <i type="int" name="MAGATOM">     0</i>
   <v name="MAGDIPOL">      0.00000000      0.00000000      0.00000000</v>
   <v name="AVECCONST">      0.00000000      0.00000000      0.00000000</v>
  </separator>
  <separator name="response functions" >
   <i type="logical" name="LADDER"> F  </i>
   <i type="logical" name="LRPAFORCE"> F  </i>
   <i type="logical" name="LFXC"> F  </i>
   <i type="logical" name="LHARTREE"> T  </i>
   <i type="int" name="IBSE">     0</i>
   <v type="int" name="KPOINT">    -1     0     0     0</v>
   <i type="logical" name="LTCTE"> F  </i>
   <i type="logical" name="LTETE"> F  </i>
   <i type="logical" name="LTRIPLET"> F  </i>
   <i type="logical" name="LFXCEPS"> F  </i>
   <i type="logical" name="LFXHEG"> F  </i>
   <i type="int" name="NATURALO">     2</i>
   <i type="logical" name="L2ORDER"> F  </i>
   <i type="logical" name="LMP2LT"> F  </i>
   <i type="logical" name="LUSEW"> F  </i>
   <i name="ENCUTGW">     -2.00000000</i>
   <i name="ENCUTGWSOFT">     -2.00000000</i>
   <i name="ENCUTLF">     -1.00000000</i>
   <i type="int" name="LMAXMP2">    -1</i>
   <i name="SCISSOR">      0.00000000</i>
   <i type="int" name="NOMEGA">     0</i>
   <i type="int" name="NOMEGAR">     0</i>
   <i type="int" name="NBANDSGW">    -1</i>
   <i type="int" name="NBANDSO">    -1</i>
   <i type="int" name="NBANDSV">    -1</i>
   <i type="int" name="NELM">    90</i>
   <i type="int" name="NELMHF">     1</i>
   <i type="int" name="DIM">     3</i>
   <i type="int" name="ANTIRES">     0</i>
   <i name="OMEGAMAX">    -30.00000000</i>
   <i name="OMEGAMIN">    -30.00000000</i>
   <i name="OMEGATL">   -200.00000000</i>
   <i type="int" name="OMEGAGRID">   140</i>
   <i name="CSHIFT">     -0.10000000</i>
   <i type="logical" name="SELFENERGY"> F  </i>
   <i type="logical" name="LSPECTRAL"> F  </i>
   <i type="logical" name="LSPECTRALGW"> F  </i>
   <i type="logical" name="LSINGLES"> F  </i>
   <i type="logical" name="LFERMIGW"> F  </i>
   <i type="logical" name="ODDONLYGW"> F  </i>
   <i type="logical" name="EVENONLYGW"> F  </i>
   <i type="int" name="NKREDLFX">     1</i>
   <i type="int" name="NKREDLFY">     1</i>
   <i type="int" name="NKREDLFZ">     1</i>
   <i type="int" name="MAXMEM">  2800</i>
   <i type="int" name="TELESCOPE">     0</i>
   <i type="int" name="TAUPAR">     1</i>
   <i type="int" name="OMEGAPAR">    -1</i>
   <i name="LAMBDA">      1.00000000</i>
  </separator>
  <separator name="External order field" >
   <i name="OFIELD_KAPPA">      0.00000000</i>
   <v name="OFIELD_K">      0.00000000      0.00000000      0.00000000</v>
   <i name="OFIELD_Q6_NEAR">      0.00000000</i>
   <i name="OFIELD_Q6_FAR">      0.00000000</i>
   <i name="OFIELD_A">      0.00000000</i>
  </separator>
 </parameters>
 <atominfo>
  <atoms>      30 </atoms>
  <types>       2 </types>
  <array name="atoms" >
   <dimension dim="1">ion</dimension>
   <field type="string">element</field>
   <field type="int">atomtype</field>
   <set>
    <rc><c>Ti</c><c>   1</c></rc>
    <rc><c>Ti</c><c>   1</c></rc>
    <rc><c>Ti</c><c>   1</c></rc>
    <rc><c>Ti</c><c>   1</c></rc>
    <rc><c>Ti</c><c>   1</c></rc>
    <rc><c>Ti</c><c>   1</c></rc>
    <rc><c>Ti</c><c>   1</c></rc>
    <rc><c>Ti</c><c>   1</c></rc>
    <rc><c>Ti</c><c>   1</c></rc>
    <rc><c>Ti</c><c>   1</c></rc>
    <rc><c>Ti</c><c>   1</c></rc>
    <rc><c>Ti</c><c>   1</c></rc>
    <rc><c>O </c><c>   2</c></rc>
    <rc><c>O </c><c>   2</c></rc>
    <rc><c>O </c><c>   2</c></rc>
    <rc><c>O </c><c>   2</c></rc>
    <rc><c>O </c><c>   2</c></rc>
    <rc><c>O </c><c>   2</c></rc>
    <rc><c>O </c><c>   2</c></rc>
    <rc><c>O </c><c>   2</c></rc>
    <rc><c>O </c><c>   2</c></rc>
    <rc><c>O </c><c>   2</c></rc>
    <rc><c>O </c><c>   2</c></rc>
    <rc><c>O </c><c>   2</c></rc>
    <rc><c>O </c><c>   2</c></rc>
    <rc><c>O </c><c>   2</c></rc>
    <rc><c>O </c><c>   2</c></rc>
    <rc><c>O </c><c>   2</c></rc>
    <rc><c>O </c><c>   2</c></rc>
    <rc><c>O </c><c>   2</c></rc>
   </set>
  </array>
  <array name="atomtypes" >
   <dimension dim="1">type</dimension>
   <field type="int">atomspertype</field>
   <field type="string">element</field>
   <field>mass</field>
   <field>valence</field>
   <field type="string">pseudopotential</field>
   <set>
    <rc><c>  12</c><c>Ti</c><c>     47.88000000</c><c>      4.00000000</c><c>  PAW_PBE Ti 08Apr2002                  </c></rc>
    <rc><c>  18</c><c>O </c><c>     16.00000000</c><c>      6.00000000</c><c>  PAW_PBE O 08Apr2002                   </c></rc>
   </set>
  </array>
 </atominfo>
 <structure name="initialpos" >
  <crystal>
   <varray name="basis" >
    <v>       2.55341532      -4.42264507       0.00000000 </v>
    <v>       2.55341532       4.42264507       0.00000000 </v>
    <v>       0.00000000       0.00000000      13.77700915 </v>
   </varray>
   <i name="volume">    311.16338672 </i>
   <varray name="rec_basis" >
    <v>       0.19581617      -0.11305452       0.00000000 </v>
    <v>       0.19581617       0.11305452       0.00000000 </v>
    <v>       0.00000000       0.00000000       0.07258469 </v>
   </varray>
  </crystal>
  <varray name="positions" >
   <v>       0.33333333       0.66666667       0.01120414 </v>
   <v>       0.00000000       0.00000000       0.15546253 </v>
   <v>       0.33333333       0.66666667       0.32212920 </v>
   <v>       0.66666667       0.33333333       0.17787080 </v>
   <v>       0.00000000       0.00000000       0.34453747 </v>
   <v>       0.66666667       0.33333333       0.48879586 </v>
   <v>       0.00000000       0.00000000       0.65546253 </v>
   <v>       0.33333333       0.66666667       0.51120414 </v>
   <v>       0.66666667       0.33333333       0.67787080 </v>
   <v>       0.33333333       0.66666667       0.82212920 </v>
   <v>       0.66666667       0.33333333       0.98879586 </v>
   <v>       0.00000000       0.00000000       0.84453747 </v>
   <v>       0.31439446       0.00000000       0.25000000 </v>
   <v>       0.00000000       0.31439446       0.25000000 </v>
   <v>       0.68560554       0.68560554       0.25000000 </v>
   <v>       0.35227221       0.33333333       0.08333333 </v>
   <v>       0.66666667       0.01893887       0.08333333 </v>
   <v>       0.98106113       0.64772779       0.08333333 </v>
   <v>       0.98106113       0.33333333       0.58333333 </v>
   <v>       0.66666667       0.64772779       0.58333333 </v>
   <v>       0.35227221       0.01893887       0.58333333 </v>
   <v>       0.01893887       0.66666667       0.41666667 </v>
   <v>       0.33333333       0.35227221       0.41666667 </v>
   <v>       0.64772779       0.98106113       0.41666667 </v>
   <v>       0.64772779       0.66666667       0.91666667 </v>
   <v>       0.33333333       0.98106113       0.91666667 </v>
   <v>       0.01893887       0.35227221       0.91666667 </v>
   <v>       0.68560554       0.00000000       0.75000000 </v>
   <v>       0.00000000       0.68560554       0.75000000 </v>
   <v>       0.31439446       0.31439446       0.75000000 </v>
  </varray>
 </structure>
 <calculation>
  <scstep>
   <time name="dav">    2.23    2.23</time>
   <time name="total">    2.27    2.27</time>
   <energy>
    <i name="alphaZ">    739.05072767 </i>
    <i name="ewald">  -7575.20747300 </i>
    <i name="hartreedc">  -2027.09532941 </i>
    <i name="XCdc">     56.46933784 </i>
    <i name="pawpsdc">   7744.08000813 </i>
    <i name="pawaedc">  -7290.88659083 </i>
    <i name="eentropy">     -0.01827481 </i>
    <i name="bandstr">   1293.02183637 </i>
    <i name="atom">   8918.24473510 </i>
    <i name="e_fr_energy">   1857.65897706 </i>
    <i name="e_wo_entrp">   1857.67725187 </i>
    <i name="e_0_energy">   1857.66811447 </i>
   </energy>
  </scstep>
  <scstep>
   <time name="dav">    2.22    2.23</time>
   <time name="total">    2.23    2.23</time>
   <energy>
    <i name="e_fr_energy">    290.49865869 </i>
    <i name="e_wo_entrp">    290.51519058 </i>
    <i name="e_0_energy">    290.50692464 </i>
   </energy>
  </scstep>
  <scstep>
   <time name="dav">    2.83    2.83</time>
   <time name="total">    2.83    2.83</time>
   <energy>
    <i name="e_fr_energy">   -288.85551882 </i>
    <i name="e_wo_entrp">   -288.84149192 </i>
    <i name="e_0_energy">   -288.84850537 </i>
   </energy>
  </scstep>
  <scstep>
   <time name="dav">    2.75    2.75</time>
   <time name="total">    2.75    2.75</time>
   <energy>
    <i name="e_fr_energy">   -330.45503433 </i>
    <i name="e_wo_entrp">   -330.43773454 </i>
    <i name="e_0_energy">   -330.44638443 </i>
   </energy>
  </scstep>
  <scstep>
   <time name="dav">    2.79    2.80</time>
   <time name="total">    2.92    2.93</time>
   <energy>
    <i name="e_fr_energy">   -331.75399142 </i>
    <i name="e_wo_entrp">   -331.73631572 </i>
    <i name="e_0_energy">   -331.74515357 </i>
   </energy>
  </scstep>
  <scstep>
   <time name="dav">    2.79    2.79</time>
   <time name="total">    2.95    2.97</time>
   <energy>
    <i name="e_fr_energy">   -270.19848689 </i>
    <i name="e_wo_entrp">   -270.18548726 </i>
    <i name="e_0_energy">   -270.19198707 </i>
   </energy>
  </scstep>
  <scstep>
   <time name="dav">    2.98    2.98</time>
   <time name="total">    3.14    3.15</time>
   <energy>
    <i name="e_fr_energy">   -268.70451915 </i>
    <i name="e_wo_entrp">   -268.69034533 </i>
    <i name="e_0_energy">   -268.69743224 </i>
   </energy>
  </scstep>
  <scstep>
   <time name="dav">    2.45    2.45</time>
   <time name="total">    2.61    2.61</time>
   <energy>
    <i name="e_fr_energy">   -267.95017471 </i>
    <i name="e_wo_entrp">   -267.93917778 </i>
    <i name="e_0_energy">   -267.94467624 </i>
   </energy>
  </scstep>
  <scstep>
   <time name="dav">    2.52    2.52</time>
   <time name="total">    2.68    2.69</time>
   <energy>
    <i name="e_fr_energy">   -267.79783255 </i>
    <i name="e_wo_entrp">   -267.78637998 </i>
    <i name="e_0_energy">   -267.79210627 </i>
   </energy>
  </scstep>
  <scstep>
   <time name="dav">    2.75    2.75</time>
   <time name="total">    2.91    2.91</time>
   <energy>
    <i name="e_fr_energy">   -267.78914077 </i>
    <i name="e_wo_entrp">   -267.77751967 </i>
    <i name="e_0_energy">   -267.78333022 </i>
   </energy>
  </scstep>
  <scstep>
   <time name="dav">    2.58    2.58</time>
   <time name="total">    2.74    2.74</time>
   <energy>
    <i name="e_fr_energy">   -267.78663712 </i>
    <i name="e_wo_entrp">   -267.77495407 </i>
    <i name="e_0_energy">   -267.78079559 </i>
   </energy>
  </scstep>
  <scstep>
   <time name="dav">    3.09    3.09</time>
   <time name="total">    3.25    3.26</time>
   <energy>
    <i name="e_fr_energy">   -267.78669652 </i>
    <i name="e_wo_entrp">   -267.77496278 </i>
    <i name="e_0_energy">   -267.78082965 </i>
   </energy>
  </scstep>
  <scstep>
   <time name="dav">    2.72    2.72</time>
   <time name="total">    2.88    2.88</time>
   <energy>
    <i name="e_fr_energy">   -267.78657489 </i>
    <i name="e_wo_entrp">   -267.77488382 </i>
    <i name="e_0_energy">   -267.78072935 </i>
   </energy>
  </scstep>
  <scstep>
   <time name="dav">    2.59    2.60</time>
   <time name="total">    2.75    2.76</time>
   <energy>
    <i name="e_fr_energy">   -267.78655285 </i>
    <i name="e_wo_entrp">   -267.77485051 </i>
    <i name="e_0_energy">   -267.78070168 </i>
   </energy>
  </scstep>
  <scstep>
   <time name="dav">    2.76    2.76</time>
   <time name="total">    2.92    2.92</time>
   <energy>
    <i name="e_fr_energy">   -267.78655337 </i>
    <i name="e_wo_entrp">   -267.77485039 </i>
    <i name="e_0_energy">   -267.78070188 </i>
   </energy>
  </scstep>
  <scstep>
   <time name="dav">    2.59    2.59</time>
   <time name="total">    2.75    2.75</time>
   <energy>
    <i name="e_fr_energy">   -267.78655345 </i>
    <i name="e_wo_entrp">   -267.77484998 </i>
    <i name="e_0_energy">   -267.78070172 </i>
   </energy>
  </scstep>
  <scstep>
   <time name="dav">    2.98    2.98</time>
   <time name="total">    3.14    3.14</time>
   <energy>
    <i name="e_fr_energy">   -267.78655333 </i>
    <i name="e_wo_entrp">   -267.77484954 </i>
    <i name="e_0_energy">   -267.78070143 </i>
   </energy>
  </scstep>
  <scstep>
   <time name="dav">    2.30    2.31</time>
   <time name="total">    2.47    2.47</time>
   <energy>
    <i name="e_fr_energy">   -267.78655348 </i>
    <i name="e_wo_entrp">   -267.77484949 </i>
    <i name="e_0_energy">   -267.78070149 </i>
   </energy>
  </scstep>
  <scstep>
   <time name="dav">    1.82    1.82</time>
   <time name="total">    1.98    1.98</time>
   <energy>
    <i name="e_fr_energy">   -267.78655347 </i>
    <i name="e_wo_entrp">   -267.77484958 </i>
    <i name="e_0_energy">   -267.78070153 </i>
   </energy>
  </scstep>
  <scstep>
   <time name="dav">    1.82    1.82</time>
   <time name="total">    1.85    1.85</time>
   <energy>
    <i name="alphaZ">    739.05072767 </i>
    <i name="ewald">  -7575.20747300 </i>
    <i name="hartreedc">  -2314.75242771 </i>
    <i name="XCdc">     84.73282839 </i>
    <i name="pawpsdc">  14633.85336708 </i>
    <i name="pawaedc"> -14186.64747469 </i>
    <i name="eentropy">     -0.01170389 </i>
    <i name="bandstr">   -567.04913241 </i>
    <i name="atom">   8918.24473510 </i>
    <i name="e_fr_energy">   -267.78655346 </i>
    <i name="e_wo_entrp">   -267.77484957 </i>
    <i name="e_0_energy">   -267.78070152 </i>
   </energy>
  </scstep>
  <structure>
   <crystal>
    <varray name="basis" >
     <v>       2.55341532      -4.42264507       0.00000000 </v>
     <v>       2.55341532       4.42264507       0.00000000 </v>
     <v>       0.00000000       0.00000000      13.77700915 </v>
    </varray>
    <i name="volume">    311.16338672 </i>
    <varray name="rec_basis" >
     <v>       0.19581617      -0.11305452       0.00000000 </v>
     <v>       0.19581617       0.11305452       0.00000000 </v>
     <v>       0.00000000       0.00000000       0.07258469 </v>
    </varray>
   </crystal>
   <varray name="positions" >
    <v>       0.33333333       0.66666667       0.01120414 </v>
    <v>       0.00000000       0.00000000       0.15546253 </v>
    <v>       0.33333333       0.66666667       0.32212920 </v>
    <v>       0.66666667       0.33333333       0.17787080 </v>
    <v>       0.00000000       0.00000000       0.34453747 </v>
    <v>       0.66666667       0.33333333       0.48879586 </v>
    <v>       0.00000000       0.00000000       0.65546253 </v>
    <v>       0.33333333       0.66666667       0.51120414 </v>
    <v>       0.66666667       0.33333333       0.67787080 </v>
    <v>       0.33333333       0.66666667       0.82212920 </v>
    <v>       0.66666667       0.33333333       0.98879586 </v>
    <v>       0.00000000       0.00000000       0.84453747 </v>
    <v>       0.31439446       0.00000000       0.25000000 </v>
    <v>       0.00000000       0.31439446       0.25000000 </v>
    <v>       0.68560554       0.68560554       0.25000000 </v>
    <v>       0.35227221       0.33333333       0.08333333 </v>
    <v>       0.66666667       0.01893887       0.08333333 </v>
    <v>       0.98106113       0.64772779       0.08333333 </v>
    <v>       0.98106113       0.33333333       0.58333333 </v>
    <v>       0.66666667       0.64772779       0.58333333 </v>
    <v>       0.35227221       0.01893887       0.58333333 </v>
    <v>       0.01893887       0.66666667       0.41666667 </v>
    <v>       0.33333333       0.35227221       0.41666667 </v>
    <v>       0.64772779       0.98106113       0.41666667 </v>
    <v>       0.64772779       0.66666667       0.91666667 </v>
    <v>       0.33333333       0.98106113       0.91666667 </v>
    <v>       0.01893887       0.35227221       0.91666667 </v>
    <v>       0.68560554       0.00000000       0.75000000 </v>
    <v>       0.00000000       0.68560554       0.75000000 </v>
    <v>       0.31439446       0.31439446       0.75000000 </v>
   </varray>
  </structure>
  <varray name="forces" >
   <v>      -0.00000000       0.00000000       0.16361518 </v>
   <v>      -0.00000000       0.00000000      -0.16361518 </v>
   <v>      -0.00000000       0.00000000      -0.16361518 </v>
   <v>      -0.00000000       0.00000000       0.16361518 </v>
   <v>      -0.00000000       0.00000000       0.16361518 </v>
   <v>      -0.00000000       0.00000000      -0.16361518 </v>
   <v>      -0.00000000       0.00000000      -0.16361518 </v>
   <v>      -0.00000000       0.00000000       0.16361518 </v>
   <v>      -0.00000000       0.00000000       0.16361518 </v>
   <v>      -0.00000000       0.00000000      -0.16361518 </v>
   <v>      -0.00000000       0.00000000      -0.16361518 </v>
   <v>      -0.00000000       0.00000000       0.16361518 </v>
   <v>      -0.01197978       0.02074958       0.00000000 </v>
   <v>      -0.01197978      -0.02074958       0.00000000 </v>
   <v>       0.02395955       0.00000000       0.00000000 </v>
   <v>       0.01197978      -0.02074958       0.00000000 </v>
   <v>       0.01197978       0.02074958       0.00000000 </v>
   <v>      -0.02395955       0.00000000       0.00000000 </v>
   <v>      -0.01197978       0.02074958       0.00000000 </v>
   <v>      -0.01197978      -0.02074958       0.00000000 </v>
   <v>       0.02395955       0.00000000       0.00000000 </v>
   <v>       0.01197978      -0.02074958       0.00000000 </v>
   <v>       0.01197978       0.02074958       0.00000000 </v>
   <v>      -0.02395955       0.00000000       0.00000000 </v>
   <v>      -0.01197978       0.02074958       0.00000000 </v>
   <v>      -0.01197978      -0.02074958       0.00000000 </v>
   <v>       0.02395955       0.00000000       0.00000000 </v>
   <v>       0.01197978      -0.02074958       0.00000000 </v>
   <v>       0.01197978       0.02074958       0.00000000 </v>
   <v>      -0.02395955       0.00000000       0.00000000 </v>
  </varray>
  <varray name="stress" >
   <v>     -14.46487141      -0.00000000       0.00000000 </v>
   <v>      -0.00000000     -14.46487141      -0.00000000 </v>
   <v>       0.00000000       0.00000000      15.24432941 </v>
  </varray>
  <energy>
   <i name="e_fr_energy">   -267.78655346 </i>
   <i name="e_wo_entrp">   -267.78070152 </i>
   <i name="e_0_energy">     -0.01170389 </i>
  </energy>
  <time name="totalsc">   57.20   57.29</time>
 </calculation>
 <calculation>
  <scstep>
   <time name="dav">    2.18    2.18</time>
   <time name="total">    2.34    2.34</time>
   <energy>
    <i name="alphaZ">    739.05072767 </i>
    <i name="ewald">  -7576.70058554 </i>
    <i name="hartreedc">  -2313.90405163 </i>
    <i name="XCdc">     84.72822215 </i>
    <i name="pawpsdc">  14633.86211309 </i>
    <i name="pawaedc"> -14186.65620985 </i>
    <i name="eentropy">     -0.01187021 </i>
    <i name="bandstr">   -566.41225075 </i>
    <i name="atom">   8918.24473510 </i>
    <i name="e_fr_energy">   -267.79916996 </i>
    <i name="e_wo_entrp">   -267.78729976 </i>
    <i name="e_0_energy">   -267.79323486 </i>
   </energy>
  </scstep>
  <scstep>
   <time name="dav">    2.68    2.68</time>
   <time name="total">    2.84    2.84</time>
   <energy>
    <i name="e_fr_energy">   -267.79887278 </i>
    <i name="e_wo_entrp">   -267.78695982 </i>
    <i name="e_0_energy">   -267.79291630 </i>
   </energy>
  </scstep>
  <scstep>
   <time name="dav">    2.57    2.57</time>
   <time name="total">    2.73    2.73</time>
   <energy>
    <i name="e_fr_energy">   -267.79814312 </i>
    <i name="e_wo_entrp">   -267.78613570 </i>
    <i name="e_0_energy">   -267.79213941 </i>
   </energy>
  </scstep>
  <scstep>
   <time name="dav">    2.94    2.95</time>
   <time name="total">    3.10    3.11</time>
   <energy>
    <i name="e_fr_energy">   -267.79813337 </i>
    <i name="e_wo_entrp">   -267.78613191 </i>
    <i name="e_0_energy">   -267.79213264 </i>
   </energy>
  </scstep>
  <scstep>
   <time name="dav">    2.76    2.76</time>
   <time name="total">    2.92    2.92</time>
   <energy>
    <i name="e_fr_energy">   -267.79813028 </i>
    <i name="e_wo_entrp">   -267.78613303 </i>
    <i name="e_0_energy">   -267.79213165 </i>
   </energy>
  </scstep>
  <scstep>
   <time name="dav">    2.74    2.74</time>
   <time name="total">    2.90    2.91</time>
   <energy>
    <i name="e_fr_energy">   -267.79812955 </i>
    <i name="e_wo_entrp">   -267.78613564 </i>
    <i name="e_0_energy">   -267.79213260 </i>
   </energy>
  </scstep>
  <scstep>
   <time name="dav">    2.76    2.76</time>
   <time name="total">    2.92    2.92</time>
   <energy>
    <i name="e_fr_energy">   -267.79812955 </i>
    <i name="e_wo_entrp">   -267.78613598 </i>
    <i name="e_0_energy">   -267.79213276 </i>
   </energy>
  </scstep>
  <scstep>
   <time name="dav">    1.87    1.87</time>
   <time name="total">    2.03    2.03</time>
   <energy>
    <i name="e_fr_energy">   -267.79812957 </i>
    <i name="e_wo_entrp">   -267.78613595 </i>
    <i name="e_0_energy">   -267.79213276 </i>
   </energy>
  </scstep>
  <scstep>
   <time name="dav">    1.80    1.81</time>
   <time name="total">    1.83    1.84</time>
   <energy>
    <i name="alphaZ">    739.05072767 </i>
    <i name="ewald">  -7576.70058554 </i>
    <i name="hartreedc">  -2314.03049084 </i>
    <i name="XCdc">     84.70741439 </i>
    <i name="pawpsdc">  14620.81373082 </i>
    <i name="pawaedc"> -14173.57849484 </i>
    <i name="eentropy">     -0.01199373 </i>
    <i name="bandstr">   -566.29317260 </i>
    <i name="atom">   8918.24473510 </i>
    <i name="e_fr_energy">   -267.79812958 </i>
    <i name="e_wo_entrp">   -267.78613585 </i>
    <i name="e_0_energy">   -267.79213271 </i>
   </energy>
  </scstep>
  <structure>
   <crystal>
    <varray name="basis" >
     <v>       2.55341532      -4.42264507       0.00000000 </v>
     <v>       2.55341532       4.42264507       0.00000000 </v>
     <v>       0.00000000       0.00000000      13.77700915 </v>
    </varray>
    <i name="volume">    311.16338672 </i>
    <varray name="rec_basis" >
     <v>       0.19581617      -0.11305452       0.00000000 </v>
     <v>       0.19581617       0.11305452       0.00000000 </v>
     <v>       0.00000000       0.00000000       0.07258469 </v>
    </varray>
   </crystal>
   <varray name="positions" >
    <v>       0.33333333       0.66666667       0.01177706 </v>
    <v>      -0.00000000       0.00000000       0.15488960 </v>
    <v>       0.33333333       0.66666667       0.32155627 </v>
    <v>       0.66666667       0.33333333       0.17844373 </v>
    <v>      -0.00000000       0.00000000       0.34511040 </v>
    <v>       0.66666667       0.33333333       0.48822294 </v>
    <v>      -0.00000000       0.00000000       0.65488960 </v>
    <v>       0.33333333       0.66666667       0.51177706 </v>
    <v>       0.66666667       0.33333333       0.67844373 </v>
    <v>       0.33333333       0.66666667       0.82155627 </v>
    <v>       0.66666667       0.33333333       0.98822294 </v>
    <v>      -0.00000000       0.00000000       0.84511040 </v>
    <v>       0.31416812      -0.00000000       0.25000000 </v>
    <v>       0.00000000       0.31416812       0.25000000 </v>
    <v>       0.68583188       0.68583188       0.25000000 </v>
    <v>       0.35249855       0.33333333       0.08333333 </v>
    <v>       0.66666667       0.01916521       0.08333333 </v>
    <v>       0.98083479       0.64750145       0.08333333 </v>
    <v>       0.98083479       0.33333333       0.58333333 </v>
    <v>       0.66666667       0.64750145       0.58333333 </v>
    <v>       0.35249855       0.01916521       0.58333333 </v>
    <v>       0.01916521       0.66666667       0.41666667 </v>
    <v>       0.33333333       0.35249855       0.41666667 </v>
    <v>       0.64750145       0.98083479       0.41666667 </v>
    <v>       0.64750145       0.66666667       0.91666667 </v>
    <v>       0.33333333       0.98083479       0.91666667 </v>
    <v>       0.01916521       0.35249855       0.91666667 </v>
    <v>       0.68583188       0.00000000       0.75000000 </v>
    <v>      -0.00000000       0.68583188       0.75000000 </v>
    <v>       0.31416812       0.31416812       0.75000000 </v>
   </varray>
  </structure>
  <varray name="forces" >
   <v>      -0.00000000      -0.00000000       0.06667109 </v>
   <v>      -0.00000000      -0.00000000      -0.06667109 </v>
   <v>       0.00000000      -0.00000000      -0.06667109 </v>
   <v>       0.00000000      -0.00000000       0.06667109 </v>
   <v>       0.00000000      -0.00000000       0.06667109 </v>
   <v>      -0.00000000      -0.00000000      -0.06667109 </v>
   <v>       0.00000000      -0.00000000      -0.06667109 </v>
   <v>       0.00000000      -0.00000000       0.06667109 </v>
   <v>       0.00000000      -0.00000000       0.06667109 </v>
   <v>       0.00000000      -0.00000000      -0.06667109 </v>
   <v>      -0.00000000      -0.00000000      -0.06667109 </v>
   <v>       0.00000000      -0.00000000       0.06667109 </v>
   <v>      -0.02317912       0.04014741      -0.00000000 </v>
   <v>      -0.02317912      -0.04014741      -0.00000000 </v>
   <v>       0.04635824      -0.00000000      -0.00000000 </v>
   <v>       0.02317912      -0.04014741      -0.00000000 </v>
   <v>       0.02317912       0.04014741      -0.00000000 </v>
   <v>      -0.04635824      -0.00000000      -0.00000000 </v>
   <v>      -0.02317912       0.04014741      -0.00000000 </v>
   <v>      -0.02317912      -0.04014741      -0.00000000 </v>
   <v>       0.04635824      -0.00000000      -0.00000000 </v>
   <v>       0.02317912      -0.04014741      -0.00000000 </v>
   <v>       0.02317912       0.04014741      -0.00000000 </v>
   <v>      -0.04635824      -0.00000000      -0.00000000 </v>
   <v>      -0.02317912       0.04014741      -0.00000000 </v>
   <v>      -0.02317912      -0.04014741      -0.00000000 </v>
   <v>       0.04635824      -0.00000000      -0.00000000 </v>
   <v>       0.02317912      -0.04014741      -0.00000000 </v>
   <v>       0.02317912       0.04014741      -0.00000000 </v>
   <v>      -0.04635824      -0.00000000      -0.00000000 </v>
  </varray>
  <varray name="stress" >
   <v>     -14.52033235      -0.00000000      -0.00000000 </v>
   <v>      -0.00000000     -14.52033235       0.00000000 </v>
   <v>       0.00000000       0.00000000      12.51331862 </v>
  </varray>
  <energy>
   <i name="e_fr_energy">   -267.79812958 </i>
   <i name="e_wo_entrp">   -267.79213271 </i>
   <i name="e_0_energy">     -0.01199373 </i>
  </energy>
  <time name="totalsc">   26.79   26.82</time>
 </calculation>
 <calculation>
  <scstep>
   <time name="dav">    2.16    2.16</time>
   <time name="total">    2.32    2.32</time>
   <energy>
    <i name="alphaZ">    739.05072767 </i>
    <i name="ewald">  -7578.02075015 </i>
    <i name="hartreedc">  -2313.27036946 </i>
    <i name="XCdc">     84.70199614 </i>
    <i name="pawpsdc">  14620.81029986 </i>
    <i name="pawaedc"> -14173.57508409 </i>
    <i name="eentropy">     -0.01233412 </i>
    <i name="bandstr">   -565.73116069 </i>
    <i name="atom">   8918.24473510 </i>
    <i name="e_fr_energy">   -267.80193973 </i>
    <i name="e_wo_entrp">   -267.78960561 </i>
    <i name="e_0_energy">   -267.79577267 </i>
   </energy>
  </scstep>
  <scstep>
   <time name="dav">    2.70    2.70</time>
   <time name="total">    2.85    2.86</time>
   <energy>
    <i name="e_fr_energy">   -267.80173497 </i>
    <i name="e_wo_entrp">   -267.78937641 </i>
    <i name="e_0_energy">   -267.79555569 </i>
   </energy>
  </scstep>
  <scstep>
   <time name="dav">    2.57    2.57</time>
   <time name="total">    2.73    2.73</time>
   <energy>
    <i name="e_fr_energy">   -267.80114187 </i>
    <i name="e_wo_entrp">   -267.78870848 </i>
    <i name="e_0_energy">   -267.79492518 </i>
   </energy>
  </scstep>
  <scstep>
   <time name="dav">    2.94    2.95</time>
   <time name="total">    3.11    3.11</time>
   <energy>
    <i name="e_fr_energy">   -267.80113472 </i>
    <i name="e_wo_entrp">   -267.78870491 </i>
    <i name="e_0_energy">   -267.79491981 </i>
   </energy>
  </scstep>
  <scstep>
   <time name="dav">    2.81    2.81</time>
   <time name="total">    2.97    2.97</time>
   <energy>
    <i name="e_fr_energy">   -267.80113238 </i>
    <i name="e_wo_entrp">   -267.78870515 </i>
    <i name="e_0_energy">   -267.79491877 </i>
   </energy>
  </scstep>
  <scstep>
   <time name="dav">    2.64    2.65</time>
   <time name="total">    2.81    2.81</time>
   <energy>
    <i name="e_fr_energy">   -267.80113177 </i>
    <i name="e_wo_entrp">   -267.78870683 </i>
    <i name="e_0_energy">   -267.79491930 </i>
   </energy>
  </scstep>
  <scstep>
   <time name="dav">    2.67    2.68</time>
   <time name="total">    2.83    2.84</time>
   <energy>
    <i name="e_fr_energy">   -267.80113178 </i>
    <i name="e_wo_entrp">   -267.78870706 </i>
    <i name="e_0_energy">   -267.79491942 </i>
   </energy>
  </scstep>
  <scstep>
   <time name="dav">    1.83    1.83</time>
   <time name="total">    1.99    1.99</time>
   <energy>
    <i name="e_fr_energy">   -267.80113180 </i>
    <i name="e_wo_entrp">   -267.78870704 </i>
    <i name="e_0_energy">   -267.79491942 </i>
   </energy>
  </scstep>
  <scstep>
   <time name="dav">    1.80    1.80</time>
   <time name="total">    1.82    1.83</time>
   <energy>
    <i name="alphaZ">    739.05072767 </i>
    <i name="ewald">  -7578.02075015 </i>
    <i name="hartreedc">  -2313.39548527 </i>
    <i name="XCdc">     84.68439126 </i>
    <i name="pawpsdc">  14610.28980705 </i>
    <i name="pawaedc"> -14163.03035904 </i>
    <i name="eentropy">     -0.01242485 </i>
    <i name="bandstr">   -565.61177357 </i>
    <i name="atom">   8918.24473510 </i>
    <i name="e_fr_energy">   -267.80113180 </i>
    <i name="e_wo_entrp">   -267.78870695 </i>
    <i name="e_0_energy">   -267.79491938 </i>
   </energy>
  </scstep>
  <structure>
   <crystal>
    <varray name="basis" >
     <v>       2.55341532      -4.42264507       0.00000000 </v>
     <v>       2.55341532       4.42264507       0.00000000 </v>
     <v>       0.00000000       0.00000000      13.77700915 </v>
    </varray>
    <i name="volume">    311.16338672 </i>
    <varray name="rec_basis" >
     <v>       0.19581617      -0.11305452       0.00000000 </v>
     <v>       0.19581617       0.11305452       0.00000000 </v>
     <v>       0.00000000       0.00000000       0.07258469 </v>
    </varray>
   </crystal>
   <varray name="positions" >
    <v>       0.33333333       0.66666667       0.01229769 </v>
    <v>      -0.00000000       0.00000000       0.15436898 </v>
    <v>       0.33333333       0.66666667       0.32103565 </v>
    <v>       0.66666667       0.33333333       0.17896435 </v>
    <v>      -0.00000000       0.00000000       0.34563102 </v>
    <v>       0.66666667       0.33333333       0.48770231 </v>
    <v>      -0.00000000       0.00000000       0.65436898 </v>
    <v>       0.33333333       0.66666667       0.51229769 </v>
    <v>       0.66666667       0.33333333       0.67896435 </v>
    <v>       0.33333333       0.66666667       0.82103565 </v>
    <v>       0.66666667       0.33333333       0.98770231 </v>
    <v>      -0.00000000       0.00000000       0.84563102 </v>
    <v>       0.31396245      -0.00000000       0.25000000 </v>
    <v>       0.00000000       0.31396245       0.25000000 </v>
    <v>       0.68603755       0.68603755       0.25000000 </v>
    <v>       0.35270422       0.33333333       0.08333333 </v>
    <v>       0.66666667       0.01937089       0.08333333 </v>
    <v>       0.98062911       0.64729578       0.08333333 </v>
    <v>       0.98062911       0.33333333       0.58333333 </v>
    <v>       0.66666667       0.64729578       0.58333333 </v>
    <v>       0.35270422       0.01937089       0.58333333 </v>
    <v>       0.01937089       0.66666667       0.41666667 </v>
    <v>       0.33333333       0.35270422       0.41666667 </v>
    <v>       0.64729578       0.98062911       0.41666667 </v>
    <v>       0.64729578       0.66666667       0.91666667 </v>
    <v>       0.33333333       0.98062911       0.91666667 </v>
    <v>       0.01937089       0.35270422       0.91666667 </v>
    <v>       0.68603755       0.00000000       0.75000000 </v>
    <v>      -0.00000000       0.68603755       0.75000000 </v>
    <v>       0.31396245       0.31396245       0.75000000 </v>
   </varray>
  </structure>
  <varray name="forces" >
   <v>      -0.00000000       0.00000000      -0.02046766 </v>
   <v>      -0.00000000       0.00000000       0.02046766 </v>
   <v>      -0.00000000       0.00000000       0.02046766 </v>
   <v>      -0.00000000       0.00000000      -0.02046766 </v>
   <v>      -0.00000000       0.00000000      -0.02046766 </v>
   <v>      -0.00000000       0.00000000       0.02046766 </v>
   <v>      -0.00000000       0.00000000       0.02046766 </v>
   <v>      -0.00000000       0.00000000      -0.02046766 </v>
   <v>      -0.00000000       0.00000000      -0.02046766 </v>
   <v>      -0.00000000       0.00000000       0.02046766 </v>
   <v>      -0.00000000       0.00000000       0.02046766 </v>
   <v>      -0.00000000       0.00000000      -0.02046766 </v>
   <v>      -0.03383209       0.05859890      -0.00000000 </v>
   <v>      -0.03383209      -0.05859890      -0.00000000 </v>
   <v>       0.06766419       0.00000000      -0.00000000 </v>
   <v>       0.03383209      -0.05859890      -0.00000000 </v>
   <v>       0.03383209       0.05859890      -0.00000000 </v>
   <v>      -0.06766419       0.00000000      -0.00000000 </v>
   <v>      -0.03383209       0.05859890      -0.00000000 </v>
   <v>      -0.03383209      -0.05859890      -0.00000000 </v>
   <v>       0.06766419       0.00000000      -0.00000000 </v>
   <v>       0.03383209      -0.05859890      -0.00000000 </v>
   <v>       0.03383209       0.05859890      -0.00000000 </v>
   <v>      -0.06766419       0.00000000      -0.00000000 </v>
   <v>      -0.03383209       0.05859890      -0.00000000 </v>
   <v>      -0.03383209      -0.05859890      -0.00000000 </v>
   <v>       0.06766419       0.00000000      -0.00000000 </v>
   <v>       0.03383209      -0.05859890      -0.00000000 </v>
   <v>       0.03383209       0.05859890      -0.00000000 </v>
   <v>      -0.06766419       0.00000000      -0.00000000 </v>
  </varray>
  <varray name="stress" >
   <v>     -14.41221416      -0.00000000      -0.00000000 </v>
   <v>       0.00000000     -14.41221416       0.00000000 </v>
   <v>       0.00000000      -0.00000000      10.14228724 </v>
  </varray>
  <energy>
   <i name="e_fr_energy">   -267.80113180 </i>
   <i name="e_wo_entrp">   -267.79491938 </i>
   <i name="e_0_energy">     -0.01242485 </i>
  </energy>
  <time name="totalsc">   26.54   26.57</time>
 </calculation>
 <calculation>
  <scstep>
   <time name="dav">    2.15    2.15</time>
   <time name="total">    2.31    2.31</time>
   <energy>
    <i name="alphaZ">    739.05072767 </i>
    <i name="ewald">  -7575.64114616 </i>
    <i name="hartreedc">  -2315.45887582 </i>
    <i name="XCdc">     84.70542142 </i>
    <i name="pawpsdc">  14610.28746960 </i>
    <i name="pawaedc"> -14163.02803559 </i>
    <i name="eentropy">     -0.01225207 </i>
    <i name="bandstr">   -565.94782246 </i>
    <i name="atom">   8918.24473510 </i>
    <i name="e_fr_energy">   -267.79977831 </i>
    <i name="e_wo_entrp">   -267.78752624 </i>
    <i name="e_0_energy">   -267.79365227 </i>
   </energy>
  </scstep>
  <scstep>
   <time name="dav">    2.53    2.53</time>
   <time name="total">    2.68    2.69</time>
   <energy>
    <i name="e_fr_energy">   -267.80470431 </i>
    <i name="e_wo_entrp">   -267.79243778 </i>
    <i name="e_0_energy">   -267.79857104 </i>
   </energy>
  </scstep>
  <scstep>
   <time name="dav">    2.68    2.68</time>
   <time name="total">    2.84    2.84</time>
   <energy>
    <i name="e_fr_energy">   -267.80453356 </i>
    <i name="e_wo_entrp">   -267.79225512 </i>
    <i name="e_0_energy">   -267.79839434 </i>
   </energy>
  </scstep>
  <scstep>
   <time name="dav">    2.41    2.42</time>
   <time name="total">    2.57    2.57</time>
   <energy>
    <i name="e_fr_energy">   -267.80435056 </i>
    <i name="e_wo_entrp">   -267.79203409 </i>
    <i name="e_0_energy">   -267.79819232 </i>
   </energy>
  </scstep>
  <scstep>
   <time name="dav">    2.48    2.48</time>
   <time name="total">    2.63    2.64</time>
   <energy>
    <i name="e_fr_energy">   -267.80436444 </i>
    <i name="e_wo_entrp">   -267.79205382 </i>
    <i name="e_0_energy">   -267.79820913 </i>
   </energy>
  </scstep>
  <scstep>
   <time name="dav">    2.81    2.81</time>
   <time name="total">    2.96    2.97</time>
   <energy>
    <i name="e_fr_energy">   -267.80436461 </i>
    <i name="e_wo_entrp">   -267.79205257 </i>
    <i name="e_0_energy">   -267.79820859 </i>
   </energy>
  </scstep>
  <scstep>
   <time name="dav">    2.45    2.46</time>
   <time name="total">    2.61    2.62</time>
   <energy>
    <i name="e_fr_energy">   -267.80436385 </i>
    <i name="e_wo_entrp">   -267.79205281 </i>
    <i name="e_0_energy">   -267.79820833 </i>
   </energy>
  </scstep>
  <scstep>
   <time name="dav">    2.49    2.50</time>
   <time name="total">    2.65    2.65</time>
   <energy>
    <i name="e_fr_energy">   -267.80436393 </i>
    <i name="e_wo_entrp">   -267.79205286 </i>
    <i name="e_0_energy">   -267.79820839 </i>
   </energy>
  </scstep>
  <scstep>
   <time name="dav">    2.01    2.01</time>
   <time name="total">    2.17    2.17</time>
   <energy>
    <i name="e_fr_energy">   -267.80436392 </i>
    <i name="e_wo_entrp">   -267.79205290 </i>
    <i name="e_0_energy">   -267.79820841 </i>
   </energy>
  </scstep>
  <scstep>
   <time name="dav">    1.80    1.80</time>
   <time name="total">    1.83    1.83</time>
   <energy>
    <i name="alphaZ">    739.05072767 </i>
    <i name="ewald">  -7575.64114616 </i>
    <i name="hartreedc">  -2315.87645981 </i>
    <i name="XCdc">     84.71751529 </i>
    <i name="pawpsdc">  14615.02256872 </i>
    <i name="pawaedc"> -14167.76795559 </i>
    <i name="eentropy">     -0.01231111 </i>
    <i name="bandstr">   -565.54203802 </i>
    <i name="atom">   8918.24473510 </i>
    <i name="e_fr_energy">   -267.80436391 </i>
    <i name="e_wo_entrp">   -267.79205280 </i>
    <i name="e_0_energy">   -267.79820835 </i>
   </energy>
  </scstep>
  <structure>
   <crystal>
    <varray name="basis" >
     <v>       2.55341532      -4.42264507       0.00000000 </v>
     <v>       2.55341532       4.42264507       0.00000000 </v>
     <v>       0.00000000       0.00000000      13.77700915 </v>
    </varray>
    <i name="volume">    311.16338672 </i>
    <varray name="rec_basis" >
     <v>       0.19581617      -0.11305452       0.00000000 </v>
     <v>       0.19581617       0.11305452       0.00000000 </v>
     <v>       0.00000000       0.00000000       0.07258469 </v>
    </varray>
   </crystal>
   <varray name="positions" >
    <v>       0.33333333       0.66666667       0.01241401 </v>
    <v>      -0.00000000      -0.00000000       0.15425266 </v>
    <v>       0.33333333       0.66666667       0.32091933 </v>
    <v>       0.66666667       0.33333333       0.17908067 </v>
    <v>      -0.00000000      -0.00000000       0.34574734 </v>
    <v>       0.66666667       0.33333333       0.48758599 </v>
    <v>      -0.00000000      -0.00000000       0.65425266 </v>
    <v>       0.33333333       0.66666667       0.51241401 </v>
    <v>       0.66666667       0.33333333       0.67908067 </v>
    <v>       0.33333333       0.66666667       0.82091933 </v>
    <v>       0.66666667       0.33333333       0.98758599 </v>
    <v>      -0.00000000      -0.00000000       0.84574734 </v>
    <v>       0.31312766      -0.00000000       0.25000000 </v>
    <v>       0.00000000       0.31312766       0.25000000 </v>
    <v>       0.68687234       0.68687234       0.25000000 </v>
    <v>       0.35353901       0.33333333       0.08333333 </v>
    <v>       0.66666667       0.02020567       0.08333333 </v>
    <v>       0.97979433       0.64646099       0.08333333 </v>
    <v>       0.97979433       0.33333333       0.58333333 </v>
    <v>       0.66666667       0.64646099       0.58333333 </v>
    <v>       0.35353901       0.02020567       0.58333333 </v>
    <v>       0.02020567       0.66666667       0.41666667 </v>
    <v>       0.33333333       0.35353901       0.41666667 </v>
    <v>       0.64646099       0.97979433       0.41666667 </v>
    <v>       0.64646099       0.66666667       0.91666667 </v>
    <v>       0.33333333       0.97979433       0.91666667 </v>
    <v>       0.02020567       0.35353901       0.91666667 </v>
    <v>       0.68687234       0.00000000       0.75000000 </v>
    <v>      -0.00000000       0.68687234       0.75000000 </v>
    <v>       0.31312766       0.31312766       0.75000000 </v>
   </varray>
  </structure>
  <varray name="forces" >
   <v>      -0.00000000       0.00000000      -0.01049154 </v>
   <v>      -0.00000000       0.00000000       0.01049154 </v>
   <v>      -0.00000000       0.00000000       0.01049154 </v>
   <v>      -0.00000000       0.00000000      -0.01049154 </v>
   <v>      -0.00000000       0.00000000      -0.01049154 </v>
   <v>      -0.00000000       0.00000000       0.01049154 </v>
   <v>      -0.00000000       0.00000000       0.01049154 </v>
   <v>      -0.00000000       0.00000000      -0.01049154 </v>
   <v>      -0.00000000       0.00000000      -0.01049154 </v>
   <v>      -0.00000000       0.00000000       0.01049154 </v>
   <v>      -0.00000000       0.00000000       0.01049154 </v>
   <v>      -0.00000000       0.00000000      -0.01049154 </v>
   <v>      -0.01223070       0.02118420      -0.00000000 </v>
   <v>      -0.01223070      -0.02118420      -0.00000000 </v>
   <v>       0.02446140       0.00000000      -0.00000000 </v>
   <v>       0.01223070      -0.02118420      -0.00000000 </v>
   <v>       0.01223070       0.02118420      -0.00000000 </v>
   <v>      -0.02446140       0.00000000      -0.00000000 </v>
   <v>      -0.01223070       0.02118420      -0.00000000 </v>
   <v>      -0.01223070      -0.02118420      -0.00000000 </v>
   <v>       0.02446140       0.00000000      -0.00000000 </v>
   <v>       0.01223070      -0.02118420      -0.00000000 </v>
   <v>       0.01223070       0.02118420      -0.00000000 </v>
   <v>      -0.02446140       0.00000000      -0.00000000 </v>
   <v>      -0.01223070       0.02118420      -0.00000000 </v>
   <v>      -0.01223070      -0.02118420      -0.00000000 </v>
   <v>       0.02446140       0.00000000      -0.00000000 </v>
   <v>       0.01223070      -0.02118420      -0.00000000 </v>
   <v>       0.01223070       0.02118420      -0.00000000 </v>
   <v>      -0.02446140       0.00000000      -0.00000000 </v>
  </varray>
  <varray name="stress" >
   <v>     -13.64963081      -0.00000000       0.00000000 </v>
   <v>       0.00000000     -13.64963081      -0.00000000 </v>
   <v>       0.00000000       0.00000000      11.16554050 </v>
  </varray>
  <energy>
   <i name="e_fr_energy">   -267.80436391 </i>
   <i name="e_wo_entrp">   -267.79820835 </i>
   <i name="e_0_energy">     -0.01231111 </i>
  </energy>
  <time name="totalsc">   28.42   28.45</time>
 </calculation>
 <calculation>
  <scstep>
   <time name="dav">    2.17    2.17</time>
   <time name="total">    2.33    2.33</time>
   <energy>
    <i name="alphaZ">    739.05072767 </i>
    <i name="ewald">  -7574.34864658 </i>
    <i name="hartreedc">  -2317.00212748 </i>
    <i name="XCdc">     84.72895263 </i>
    <i name="pawpsdc">  14615.02219410 </i>
    <i name="pawaedc"> -14167.76758609 </i>
    <i name="eentropy">     -0.01212883 </i>
    <i name="bandstr">   -565.71959929 </i>
    <i name="atom">   8918.24473510 </i>
    <i name="e_fr_energy">   -267.80347877 </i>
    <i name="e_wo_entrp">   -267.79134994 </i>
    <i name="e_0_energy">   -267.79741436 </i>
   </energy>
  </scstep>
  <scstep>
   <time name="dav">    2.53    2.54</time>
   <time name="total">    2.69    2.70</time>
   <energy>
    <i name="e_fr_energy">   -267.80489673 </i>
    <i name="e_wo_entrp">   -267.79276022 </i>
    <i name="e_0_energy">   -267.79882848 </i>
   </energy>
  </scstep>
  <scstep>
   <time name="dav">    2.68    2.68</time>
   <time name="total">    2.84    2.85</time>
   <energy>
    <i name="e_fr_energy">   -267.80484818 </i>
    <i name="e_wo_entrp">   -267.79270476 </i>
    <i name="e_0_energy">   -267.79877647 </i>
   </energy>
  </scstep>
  <scstep>
   <time name="dav">    2.52    2.52</time>
   <time name="total">    2.68    2.68</time>
   <energy>
    <i name="e_fr_energy">   -267.80479653 </i>
    <i name="e_wo_entrp">   -267.79263102 </i>
    <i name="e_0_energy">   -267.79871378 </i>
   </energy>
  </scstep>
  <scstep>
   <time name="dav">    2.41    2.41</time>
   <time name="total">    2.57    2.57</time>
   <energy>
    <i name="e_fr_energy">   -267.80479963 </i>
    <i name="e_wo_entrp">   -267.79263833 </i>
    <i name="e_0_energy">   -267.79871898 </i>
   </energy>
  </scstep>
  <scstep>
   <time name="dav">    2.80    2.80</time>
   <time name="total">    2.95    2.96</time>
   <energy>
    <i name="e_fr_energy">   -267.80479977 </i>
    <i name="e_wo_entrp">   -267.79263773 </i>
    <i name="e_0_energy">   -267.79871875 </i>
   </energy>
  </scstep>
  <scstep>
   <time name="dav">    2.57    2.57</time>
   <time name="total">    2.73    2.73</time>
   <energy>
    <i name="e_fr_energy">   -267.80479967 </i>
    <i name="e_wo_entrp">   -267.79263785 </i>
    <i name="e_0_energy">   -267.79871876 </i>
   </energy>
  </scstep>
  <scstep>
   <time name="dav">    2.40    2.40</time>
   <time name="total">    2.43    2.43</time>
   <energy>
    <i name="alphaZ">    739.05072767 </i>
    <i name="ewald">  -7574.34864658 </i>
    <i name="hartreedc">  -2317.22488445 </i>
    <i name="XCdc">     84.73526305 </i>
    <i name="pawpsdc">  14617.62040821 </i>
    <i name="pawaedc"> -14170.36844238 </i>
    <i name="eentropy">     -0.01216177 </i>
    <i name="bandstr">   -565.50179853 </i>
    <i name="atom">   8918.24473510 </i>
    <i name="e_fr_energy">   -267.80479967 </i>
    <i name="e_wo_entrp">   -267.79263790 </i>
    <i name="e_0_energy">   -267.79871879 </i>
   </energy>
  </scstep>
  <structure>
   <crystal>
    <varray name="basis" >
     <v>       2.55341532      -4.42264507       0.00000000 </v>
     <v>       2.55341532       4.42264507       0.00000000 </v>
     <v>       0.00000000       0.00000000      13.77700915 </v>
    </varray>
    <i name="volume">    311.16338672 </i>
    <varray name="rec_basis" >
     <v>       0.19581617      -0.11305452       0.00000000 </v>
     <v>       0.19581617       0.11305452       0.00000000 </v>
     <v>       0.00000000       0.00000000       0.07258469 </v>
    </varray>
   </crystal>
   <varray name="positions" >
    <v>       0.33333333       0.66666667       0.01247640 </v>
    <v>      -0.00000000      -0.00000000       0.15419027 </v>
    <v>       0.33333333       0.66666667       0.32085694 </v>
    <v>       0.66666667       0.33333333       0.17914306 </v>
    <v>      -0.00000000      -0.00000000       0.34580973 </v>
    <v>       0.66666667       0.33333333       0.48752360 </v>
    <v>      -0.00000000      -0.00000000       0.65419027 </v>
    <v>       0.33333333       0.66666667       0.51247640 </v>
    <v>       0.66666667       0.33333333       0.67914306 </v>
    <v>       0.33333333       0.66666667       0.82085694 </v>
    <v>       0.66666667       0.33333333       0.98752360 </v>
    <v>      -0.00000000      -0.00000000       0.84580973 </v>
    <v>       0.31267990      -0.00000000       0.25000000 </v>
    <v>       0.00000000       0.31267990       0.25000000 </v>
    <v>       0.68732010       0.68732010       0.25000000 </v>
    <v>       0.35398677       0.33333333       0.08333333 </v>
    <v>       0.66666667       0.02065343       0.08333333 </v>
    <v>       0.97934657       0.64601323       0.08333333 </v>
    <v>       0.97934657       0.33333333       0.58333333 </v>
    <v>       0.66666667       0.64601323       0.58333333 </v>
    <v>       0.35398677       0.02065343       0.58333333 </v>
    <v>       0.02065343       0.66666667       0.41666667 </v>
    <v>       0.33333333       0.35398677       0.41666667 </v>
    <v>       0.64601323       0.97934657       0.41666667 </v>
    <v>       0.64601323       0.66666667       0.91666667 </v>
    <v>       0.33333333       0.97934657       0.91666667 </v>
    <v>       0.02065343       0.35398677       0.91666667 </v>
    <v>       0.68732010       0.00000000       0.75000000 </v>
    <v>      -0.00000000       0.68732010       0.75000000 </v>
    <v>       0.31267990       0.31267990       0.75000000 </v>
   </varray>
  </structure>
  <varray name="forces" >
   <v>       0.00000000       0.00000000      -0.00470343 </v>
   <v>       0.00000000       0.00000000       0.00470343 </v>
   <v>       0.00000000       0.00000000       0.00470343 </v>
   <v>       0.00000000       0.00000000      -0.00470343 </v>
   <v>       0.00000000       0.00000000      -0.00470343 </v>
   <v>       0.00000000       0.00000000       0.00470343 </v>
   <v>       0.00000000       0.00000000       0.00470343 </v>
   <v>       0.00000000       0.00000000      -0.00470343 </v>
   <v>       0.00000000       0.00000000      -0.00470343 </v>
   <v>       0.00000000       0.00000000       0.00470343 </v>
   <v>       0.00000000       0.00000000       0.00470343 </v>
   <v>       0.00000000       0.00000000      -0.00470343 </v>
   <v>      -0.00035209       0.00060983      -0.00000000 </v>
   <v>      -0.00035209      -0.00060983       0.00000000 </v>
   <v>       0.00070417       0.00000000       0.00000000 </v>
   <v>       0.00035209      -0.00060983       0.00000000 </v>
   <v>       0.00035209       0.00060983      -0.00000000 </v>
   <v>      -0.00070417       0.00000000      -0.00000000 </v>
   <v>      -0.00035209       0.00060983      -0.00000000 </v>
   <v>      -0.00035209      -0.00060983       0.00000000 </v>
   <v>       0.00070417       0.00000000       0.00000000 </v>
   <v>       0.00035209      -0.00060983       0.00000000 </v>
   <v>       0.00035209       0.00060983       0.00000000 </v>
   <v>      -0.00070417       0.00000000      -0.00000000 </v>
   <v>      -0.00035209       0.00060983       0.00000000 </v>
   <v>      -0.00035209      -0.00060983      -0.00000000 </v>
   <v>       0.00070417       0.00000000       0.00000000 </v>
   <v>       0.00035209      -0.00060983       0.00000000 </v>
   <v>       0.00035209       0.00060983      -0.00000000 </v>
   <v>      -0.00070417       0.00000000      -0.00000000 </v>
  </varray>
  <varray name="stress" >
   <v>     -13.24589789       0.00000000       0.00000000 </v>
   <v>       0.00000000     -13.24589789       0.00000000 </v>
   <v>       0.00000000      -0.00000000      11.73024069 </v>
  </varray>
  <energy>
   <i name="e_fr_energy">   -267.80479967 </i>
   <i name="e_wo_entrp">   -267.79871879 </i>
   <i name="e_0_energy">     -0.01216177 </i>
  </energy>
  <time name="totalsc">   24.45   24.51</time>
  <eigenvalues>
   <array>
    <dimension dim="1">band</dimension>
    <dimension dim="2">kpoint</dimension>
    <dimension dim="3">spin</dimension>
    <field>eigene</field>
    <field>occ</field>
    <set>
     <set comment="spin 1">
      <set comment="kpoint 1">
       <r>  -15.8519    1.0000 </r>
       <r>  -15.6810    1.0000 </r>
       <r>  -15.3723    1.0000 </r>
       <r>  -14.9933    1.0000 </r>
       <r>  -14.7873    1.0000 </r>
       <r>  -14.7873    1.0000 </r>
       <r>  -14.7472    1.0000 </r>
       <r>  -14.7472    1.0000 </r>
       <r>  -14.6766    1.0000 </r>
       <r>  -14.6766    1.0000 </r>
       <r>  -14.6393    1.0000 </r>
       <r>  -14.5933    1.0000 </r>
       <r>  -14.5933    1.0000 </r>
       <r>  -14.5195    1.0000 </r>
       <r>  -14.5195    1.0000 </r>
       <r>  -14.4766    1.0000 </r>
       <r>  -14.4766    1.0000 </r>
       <r>  -14.4216    1.0000 </r>
       <r>   -2.9303    1.0000 </r>
       <r>   -2.5594    1.0000 </r>
       <r>   -2.3157    1.0000 </r>
       <r>   -2.3157    1.0000 </r>
       <r>   -2.2159    1.0000 </r>
       <r>   -2.2159    1.0000 </r>
       <r>   -2.0554    1.0000 </r>
       <r>   -2.0422    1.0000 </r>
       <r>   -2.0422    1.0000 </r>
       <r>   -1.9066    1.0000 </r>
       <r>   -1.9066    1.0000 </r>
       <r>   -1.8651    1.0000 </r>
       <r>   -1.8651    1.0000 </r>
       <r>   -1.8209    1.0000 </r>
       <r>   -1.8209    1.0000 </r>
       <r>   -1.7920    1.0000 </r>
       <r>   -1.7791    1.0000 </r>
       <r>   -1.6361    1.0000 </r>
       <r>   -1.4695    1.0000 </r>
       <r>   -1.4695    1.0000 </r>
       <r>   -1.4204    1.0000 </r>
       <r>   -1.3639    1.0000 </r>
       <r>   -1.3639    1.0000 </r>
       <r>   -1.3588    1.0000 </r>
       <r>   -1.3588    1.0000 </r>
       <r>   -1.1800    1.0000 </r>
       <r>   -1.0603    1.0000 </r>
       <r>   -1.0603    1.0000 </r>
       <r>   -0.9658    1.0000 </r>
       <r>   -0.9658    1.0000 </r>
       <r>   -0.8826    1.0000 </r>
       <r>   -0.8826    1.0000 </r>
       <r>   -0.8019    1.0000 </r>
       <r>   -0.5826    1.0000 </r>
       <r>   -0.4128    1.0000 </r>
       <r>   -0.0840    1.0000 </r>
       <r>    0.2373    1.0000 </r>
       <r>    0.3026    1.0000 </r>
       <r>    0.3026    1.0000 </r>
       <r>    0.3109    1.0000 </r>
       <r>    0.3704    1.0000 </r>
       <r>    0.3978    1.0000 </r>
       <r>    0.3978    1.0000 </r>
       <r>    0.5215    1.0000 </r>
       <r>    0.5215    1.0000 </r>
       <r>    0.5901    1.0000 </r>
       <r>    0.7713    1.0000 </r>
       <r>    0.7713    1.0000 </r>
       <r>    0.7951    1.0000 </r>
       <r>    1.1183    1.0000 </r>
       <r>    1.1183    1.0000 </r>
       <r>    1.2437    1.0000 </r>
       <r>    1.2437    1.0000 </r>
       <r>    1.2870    1.0000 </r>
       <r>    4.4099    1.0000 </r>
       <r>    4.8484    1.0000 </r>
       <r>    5.0982    0.9980 </r>
       <r>    5.0982    0.9980 </r>
       <r>    5.2995    0.0024 </r>
       <r>    5.2995    0.0024 </r>
       <r>    5.4258    0.0000 </r>
       <r>    5.5326    0.0000 </r>
       <r>    5.5326    0.0000 </r>
       <r>    5.5422    0.0000 </r>
       <r>    5.5422    0.0000 </r>
       <r>    5.5618    0.0000 </r>
       <r>    5.5944    0.0000 </r>
       <r>    5.5944    0.0000 </r>
       <r>    5.6037    0.0000 </r>
       <r>    5.6286    0.0000 </r>
       <r>    5.6286    0.0000 </r>
       <r>    5.6619    0.0000 </r>
       <r>    5.6872    0.0000 </r>
       <r>    5.6872    0.0000 </r>
       <r>    5.7659    0.0000 </r>
       <r>    5.7659    0.0000 </r>
       <r>    5.7989    0.0000 </r>
       <r>    5.7989    0.0000 </r>
      </set>
      <set comment="kpoint 2">
       <r>  -15.8110    1.0000 </r>
       <r>  -15.6469    1.0000 </r>
       <r>  -15.3495    1.0000 </r>
       <r>  -14.9912    1.0000 </r>
       <r>  -14.7872    1.0000 </r>
       <r>  -14.7863    1.0000 </r>
       <r>  -14.7836    1.0000 </r>
       <r>  -14.7223    1.0000 </r>
       <r>  -14.7129    1.0000 </r>
       <r>  -14.6434    1.0000 </r>
       <r>  -14.6308    1.0000 </r>
       <r>  -14.6277    1.0000 </r>
       <r>  -14.5786    1.0000 </r>
       <r>  -14.5665    1.0000 </r>
       <r>  -14.5027    1.0000 </r>
       <r>  -14.5012    1.0000 </r>
       <r>  -14.4947    1.0000 </r>
       <r>  -14.4341    1.0000 </r>
       <r>   -2.8890    1.0000 </r>
       <r>   -2.5662    1.0000 </r>
       <r>   -2.3030    1.0000 </r>
       <r>   -2.2920    1.0000 </r>
       <r>   -2.2659    1.0000 </r>
       <r>   -2.2195    1.0000 </r>
       <r>   -2.2141    1.0000 </r>
       <r>   -2.1736    1.0000 </r>
       <r>   -2.0660    1.0000 </r>
       <r>   -2.0226    1.0000 </r>
       <r>   -1.9393    1.0000 </r>
       <r>   -1.9111    1.0000 </r>
       <r>   -1.8792    1.0000 </r>
       <r>   -1.8686    1.0000 </r>
       <r>   -1.8220    1.0000 </r>
       <r>   -1.7727    1.0000 </r>
       <r>   -1.6551    1.0000 </r>
       <r>   -1.5878    1.0000 </r>
       <r>   -1.5857    1.0000 </r>
       <r>   -1.3845    1.0000 </r>
       <r>   -1.3310    1.0000 </r>
       <r>   -1.2647    1.0000 </r>
       <r>   -1.2492    1.0000 </r>
       <r>   -1.1735    1.0000 </r>
       <r>   -1.1728    1.0000 </r>
       <r>   -1.1513    1.0000 </r>
       <r>   -1.1331    1.0000 </r>
       <r>   -1.0528    1.0000 </r>
       <r>   -1.0448    1.0000 </r>
       <r>   -1.0349    1.0000 </r>
       <r>   -0.8866    1.0000 </r>
       <r>   -0.8800    1.0000 </r>
       <r>   -0.7105    1.0000 </r>
       <r>   -0.4585    1.0000 </r>
       <r>   -0.2394    1.0000 </r>
       <r>    0.0179    1.0000 </r>
       <r>    0.0869    1.0000 </r>
       <r>    0.1960    1.0000 </r>
       <r>    0.2177    1.0000 </r>
       <r>    0.2204    1.0000 </r>
       <r>    0.2834    1.0000 </r>
       <r>    0.4051    1.0000 </r>
       <r>    0.5338    1.0000 </r>
       <r>    0.5489    1.0000 </r>
       <r>    0.5668    1.0000 </r>
       <r>    0.5773    1.0000 </r>
       <r>    0.6707    1.0000 </r>
       <r>    0.7972    1.0000 </r>
       <r>    0.8438    1.0000 </r>
       <r>    1.0311    1.0000 </r>
       <r>    1.0559    1.0000 </r>
       <r>    1.0907    1.0000 </r>
       <r>    1.1797    1.0000 </r>
       <r>    1.2827    1.0000 </r>
       <r>    4.4236    1.0000 </r>
       <r>    4.8311    1.0000 </r>
       <r>    4.9915    1.0000 </r>
       <r>    5.1370    0.9623 </r>
       <r>    5.1613    0.8621 </r>
       <r>    5.2577    0.0508 </r>
       <r>    5.2797    0.0119 </r>
       <r>    5.3717    0.0000 </r>
       <r>    5.5015    0.0000 </r>
       <r>    5.5073    0.0000 </r>
       <r>    5.5089    0.0000 </r>
       <r>    5.5094    0.0000 </r>
       <r>    5.5963    0.0000 </r>
       <r>    5.6566    0.0000 </r>
       <r>    5.6668    0.0000 </r>
       <r>    5.6978    0.0000 </r>
       <r>    5.7067    0.0000 </r>
       <r>    5.7163    0.0000 </r>
       <r>    5.7301    0.0000 </r>
       <r>    5.7511    0.0000 </r>
       <r>    5.7843    0.0000 </r>
       <r>    5.8022    0.0000 </r>
       <r>    5.9461    0.0000 </r>
       <r>    5.9466    0.0000 </r>
      </set>
      <set comment="kpoint 3">
       <r>  -15.6927    1.0000 </r>
       <r>  -15.5530    1.0000 </r>
       <r>  -15.2820    1.0000 </r>
       <r>  -14.9893    1.0000 </r>
       <r>  -14.8379    1.0000 </r>
       <r>  -14.7899    1.0000 </r>
       <r>  -14.7659    1.0000 </r>
       <r>  -14.7542    1.0000 </r>
       <r>  -14.7092    1.0000 </r>
       <r>  -14.6638    1.0000 </r>
       <r>  -14.6502    1.0000 </r>
       <r>  -14.6477    1.0000 </r>
       <r>  -14.5979    1.0000 </r>
       <r>  -14.5903    1.0000 </r>
       <r>  -14.5756    1.0000 </r>
       <r>  -14.5266    1.0000 </r>
       <r>  -14.4953    1.0000 </r>
       <r>  -14.4695    1.0000 </r>
       <r>   -2.7807    1.0000 </r>
       <r>   -2.5839    1.0000 </r>
       <r>   -2.5090    1.0000 </r>
       <r>   -2.4322    1.0000 </r>
       <r>   -2.3091    1.0000 </r>
       <r>   -2.2935    1.0000 </r>
       <r>   -2.2526    1.0000 </r>
       <r>   -2.1902    1.0000 </r>
       <r>   -2.1513    1.0000 </r>
       <r>   -2.1340    1.0000 </r>
       <r>   -2.0433    1.0000 </r>
       <r>   -1.8951    1.0000 </r>
       <r>   -1.8722    1.0000 </r>
       <r>   -1.8300    1.0000 </r>
       <r>   -1.7998    1.0000 </r>
       <r>   -1.7311    1.0000 </r>
       <r>   -1.7001    1.0000 </r>
       <r>   -1.4313    1.0000 </r>
       <r>   -1.4264    1.0000 </r>
       <r>   -1.3565    1.0000 </r>
       <r>   -1.2771    1.0000 </r>
       <r>   -1.2406    1.0000 </r>
       <r>   -1.1807    1.0000 </r>
       <r>   -1.1747    1.0000 </r>
       <r>   -1.1745    1.0000 </r>
       <r>   -1.1591    1.0000 </r>
       <r>   -0.9812    1.0000 </r>
       <r>   -0.9558    1.0000 </r>
       <r>   -0.8834    1.0000 </r>
       <r>   -0.8239    1.0000 </r>
       <r>   -0.7397    1.0000 </r>
       <r>   -0.6617    1.0000 </r>
       <r>   -0.6604    1.0000 </r>
       <r>   -0.3488    1.0000 </r>
       <r>   -0.0851    1.0000 </r>
       <r>    0.0014    1.0000 </r>
       <r>    0.0133    1.0000 </r>
       <r>    0.0407    1.0000 </r>
       <r>    0.0423    1.0000 </r>
       <r>    0.1763    1.0000 </r>
       <r>    0.2421    1.0000 </r>
       <r>    0.2998    1.0000 </r>
       <r>    0.4732    1.0000 </r>
       <r>    0.5829    1.0000 </r>
       <r>    0.5948    1.0000 </r>
       <r>    0.6080    1.0000 </r>
       <r>    0.6211    1.0000 </r>
       <r>    0.6474    1.0000 </r>
       <r>    0.8335    1.0000 </r>
       <r>    0.9246    1.0000 </r>
       <r>    0.9614    1.0000 </r>
       <r>    0.9925    1.0000 </r>
       <r>    1.0002    1.0000 </r>
       <r>    1.1883    1.0000 </r>
       <r>    4.4459    1.0000 </r>
       <r>    4.7356    1.0000 </r>
       <r>    4.8113    1.0000 </r>
       <r>    4.8241    1.0000 </r>
       <r>    4.9978    1.0000 </r>
       <r>    5.1160    0.9911 </r>
       <r>    5.2851    0.0079 </r>
       <r>    5.3576    0.0000 </r>
       <r>    5.3687    0.0000 </r>
       <r>    5.4214    0.0000 </r>
       <r>    5.4731    0.0000 </r>
       <r>    5.4862    0.0000 </r>
       <r>    5.7139    0.0000 </r>
       <r>    5.7184    0.0000 </r>
       <r>    5.7202    0.0000 </r>
       <r>    5.7327    0.0000 </r>
       <r>    5.7444    0.0000 </r>
       <r>    5.7941    0.0000 </r>
       <r>    5.8555    0.0000 </r>
       <r>    5.8716    0.0000 </r>
       <r>    5.8926    0.0000 </r>
       <r>    6.0144    0.0000 </r>
       <r>    6.0913    0.0000 </r>
       <r>    6.1048    0.0000 </r>
      </set>
      <set comment="kpoint 4">
       <r>  -15.5109    1.0000 </r>
       <r>  -15.4198    1.0000 </r>
       <r>  -15.1751    1.0000 </r>
       <r>  -15.0190    1.0000 </r>
       <r>  -14.8774    1.0000 </r>
       <r>  -14.8265    1.0000 </r>
       <r>  -14.7964    1.0000 </r>
       <r>  -14.7566    1.0000 </r>
       <r>  -14.7286    1.0000 </r>
       <r>  -14.7279    1.0000 </r>
       <r>  -14.7072    1.0000 </r>
       <r>  -14.7028    1.0000 </r>
       <r>  -14.6444    1.0000 </r>
       <r>  -14.5912    1.0000 </r>
       <r>  -14.5674    1.0000 </r>
       <r>  -14.5543    1.0000 </r>
       <r>  -14.5204    1.0000 </r>
       <r>  -14.4884    1.0000 </r>
       <r>   -2.7202    1.0000 </r>
       <r>   -2.6691    1.0000 </r>
       <r>   -2.6399    1.0000 </r>
       <r>   -2.5836    1.0000 </r>
       <r>   -2.4229    1.0000 </r>
       <r>   -2.4205    1.0000 </r>
       <r>   -2.2210    1.0000 </r>
       <r>   -2.1729    1.0000 </r>
       <r>   -2.1462    1.0000 </r>
       <r>   -2.0843    1.0000 </r>
       <r>   -2.0073    1.0000 </r>
       <r>   -1.8729    1.0000 </r>
       <r>   -1.8114    1.0000 </r>
       <r>   -1.8039    1.0000 </r>
       <r>   -1.8039    1.0000 </r>
       <r>   -1.6255    1.0000 </r>
       <r>   -1.6150    1.0000 </r>
       <r>   -1.3911    1.0000 </r>
       <r>   -1.3458    1.0000 </r>
       <r>   -1.3059    1.0000 </r>
       <r>   -1.3049    1.0000 </r>
       <r>   -1.2019    1.0000 </r>
       <r>   -1.1844    1.0000 </r>
       <r>   -1.1431    1.0000 </r>
       <r>   -1.1043    1.0000 </r>
       <r>   -1.0909    1.0000 </r>
       <r>   -0.9417    1.0000 </r>
       <r>   -0.9209    1.0000 </r>
       <r>   -0.7795    1.0000 </r>
       <r>   -0.6543    1.0000 </r>
       <r>   -0.6274    1.0000 </r>
       <r>   -0.5309    1.0000 </r>
       <r>   -0.3410    1.0000 </r>
       <r>   -0.3357    1.0000 </r>
       <r>   -0.2816    1.0000 </r>
       <r>   -0.1504    1.0000 </r>
       <r>   -0.0867    1.0000 </r>
       <r>   -0.0005    1.0000 </r>
       <r>    0.0066    1.0000 </r>
       <r>    0.1174    1.0000 </r>
       <r>    0.1465    1.0000 </r>
       <r>    0.2228    1.0000 </r>
       <r>    0.4061    1.0000 </r>
       <r>    0.4974    1.0000 </r>
       <r>    0.5225    1.0000 </r>
       <r>    0.5618    1.0000 </r>
       <r>    0.5819    1.0000 </r>
       <r>    0.6716    1.0000 </r>
       <r>    0.7204    1.0000 </r>
[...]
       <r>   -1.1466    1.0000 </r>
       <r>   -1.1466    1.0000 </r>
       <r>   -1.1466    1.0000 </r>
       <r>   -1.0966    1.0000 </r>
       <r>   -1.0966    1.0000 </r>
       <r>   -1.0966    1.0000 </r>
       <r>   -0.9450    1.0000 </r>
       <r>   -0.9450    1.0000 </r>
       <r>   -0.9450    1.0000 </r>
       <r>   -0.7964    1.0000 </r>
       <r>   -0.7964    1.0000 </r>
       <r>   -0.7964    1.0000 </r>
       <r>   -0.6472    1.0000 </r>
       <r>   -0.6472    1.0000 </r>
       <r>   -0.6472    1.0000 </r>
       <r>   -0.2801    1.0000 </r>
       <r>   -0.2801    1.0000 </r>
       <r>   -0.2801    1.0000 </r>
       <r>    0.0556    1.0000 </r>
       <r>    0.0556    1.0000 </r>
       <r>    0.0556    1.0000 </r>
       <r>    0.1661    1.0000 </r>
       <r>    0.1661    1.0000 </r>
       <r>    0.1661    1.0000 </r>
       <r>    0.4761    1.0000 </r>
       <r>    0.4761    1.0000 </r>
       <r>    0.4761    1.0000 </r>
       <r>    0.5240    1.0000 </r>
       <r>    0.5240    1.0000 </r>
       <r>    0.5240    1.0000 </r>
       <r>    0.8526    1.0000 </r>
       <r>    0.8526    1.0000 </r>
       <r>    0.8526    1.0000 </r>
       <r>    1.0925    1.0000 </r>
       <r>    1.0925    1.0000 </r>
       <r>    1.0925    1.0000 </r>
       <r>    4.2992    1.0000 </r>
       <r>    4.2992    1.0000 </r>
       <r>    4.2992    1.0000 </r>
       <r>    4.4488    1.0000 </r>
       <r>    4.4488    1.0000 </r>
       <r>    4.4488    1.0000 </r>
       <r>    5.3316    0.0001 </r>
       <r>    5.3316    0.0001 </r>
       <r>    5.3316    0.0001 </r>
       <r>    5.4386    0.0000 </r>
       <r>    5.4386    0.0000 </r>
       <r>    5.4386    0.0000 </r>
       <r>    5.8813    0.0000 </r>
       <r>    5.8813    0.0000 </r>
       <r>    5.8813    0.0000 </r>
       <r>    5.9414    0.0000 </r>
       <r>    5.9414    0.0000 </r>
       <r>    5.9414    0.0000 </r>
       <r>    6.2062    0.0000 </r>
       <r>    6.2062    0.0000 </r>
       <r>    6.2062    0.0000 </r>
       <r>    6.2263    0.0000 </r>
       <r>    6.2263    0.0000 </r>
       <r>    6.2263    0.0000 </r>
      </set>
     </set>
    </set>
   </array>
  </eigenvalues>
  <separator name="orbital magnetization" >
   <v name="MAGDIPOLOUT">      0.00000000      0.00000000      0.00000000</v>
  </separator>
  <dos>
   <i name="efermi">      5.19981154 </i>
   <total>
    <array>
     <dimension dim="1">gridpoints</dimension>
     <dimension dim="2">spin</dimension>
     <field>energy</field>
     <field>total</field>
     <field>integrated</field>
     <set>
      <set comment="spin 1">
       <r>   -16.9589     0.0000     0.0000 </r>
       <r>   -16.8778     0.0000     0.0000 </r>
       <r>   -16.7966     0.0000     0.0000 </r>
       <r>   -16.7154     0.0000     0.0000 </r>
       <r>   -16.6342     0.0000     0.0000 </r>
       <r>   -16.5530     0.0000     0.0000 </r>
       <r>   -16.4718     0.0000     0.0000 </r>
       <r>   -16.3907     0.0000     0.0000 </r>
       <r>   -16.3095     0.0000     0.0000 </r>
       <r>   -16.2283     0.0000     0.0000 </r>
       <r>   -16.1471     0.0000     0.0000 </r>
       <r>   -16.0659     0.0000     0.0000 </r>
       <r>   -15.9847     0.0000     0.0000 </r>
       <r>   -15.9036     0.0301     0.0024 </r>
       <r>   -15.8224     0.9089     0.0762 </r>
       <r>   -15.7412     2.0719     0.2444 </r>
       <r>   -15.6600     3.3771     0.5186 </r>
       <r>   -15.5788     4.9435     0.9199 </r>
       <r>   -15.4977     5.5089     1.3672 </r>
       <r>   -15.4165     6.0990     1.8623 </r>
       <r>   -15.3353     8.7872     2.5757 </r>
       <r>   -15.2541    11.9693     3.5474 </r>
       <r>   -15.1729    16.0793     4.8527 </r>
       <r>   -15.0917    12.6503     5.8797 </r>
       <r>   -15.0106    15.7813     7.1609 </r>
       <r>   -14.9294    22.6753     9.0018 </r>
       <r>   -14.8482    27.5723    11.2402 </r>
       <r>   -14.7670    57.9870    15.9477 </r>
       <r>   -14.6858    67.4186    21.4210 </r>
       <r>   -14.6046    67.5654    26.9062 </r>
       <r>   -14.5235    72.4228    32.7857 </r>
       <r>   -14.4423    35.3651    35.6567 </r>
       <r>   -14.3611     4.1662    35.9950 </r>
       <r>   -14.2799     0.0621    36.0000 </r>
       <r>   -14.1987     0.0000    36.0000 </r>
       <r>   -14.1175     0.0000    36.0000 </r>
       <r>   -14.0364     0.0000    36.0000 </r>
       <r>   -13.9552     0.0000    36.0000 </r>
       <r>   -13.8740     0.0000    36.0000 </r>
       <r>   -13.7928     0.0000    36.0000 </r>
       <r>   -13.7116     0.0000    36.0000 </r>
       <r>   -13.6304     0.0000    36.0000 </r>
       <r>   -13.5493     0.0000    36.0000 </r>
       <r>   -13.4681     0.0000    36.0000 </r>
       <r>   -13.3869     0.0000    36.0000 </r>
       <r>   -13.3057     0.0000    36.0000 </r>
       <r>   -13.2245     0.0000    36.0000 </r>
       <r>   -13.1433     0.0000    36.0000 </r>
       <r>   -13.0622     0.0000    36.0000 </r>
       <r>   -12.9810     0.0000    36.0000 </r>
       <r>   -12.8998     0.0000    36.0000 </r>
       <r>   -12.8186     0.0000    36.0000 </r>
       <r>   -12.7374     0.0000    36.0000 </r>
       <r>   -12.6562     0.0000    36.0000 </r>
       <r>   -12.5751     0.0000    36.0000 </r>
       <r>   -12.4939     0.0000    36.0000 </r>
       <r>   -12.4127     0.0000    36.0000 </r>
       <r>   -12.3315     0.0000    36.0000 </r>
       <r>   -12.2503     0.0000    36.0000 </r>
       <r>   -12.1691     0.0000    36.0000 </r>
       <r>   -12.0880     0.0000    36.0000 </r>
       <r>   -12.0068     0.0000    36.0000 </r>
       <r>   -11.9256     0.0000    36.0000 </r>
       <r>   -11.8444     0.0000    36.0000 </r>
       <r>   -11.7632     0.0000    36.0000 </r>
       <r>   -11.6820     0.0000    36.0000 </r>
       <r>   -11.6009     0.0000    36.0000 </r>
       <r>   -11.5197     0.0000    36.0000 </r>
       <r>   -11.4385     0.0000    36.0000 </r>
       <r>   -11.3573     0.0000    36.0000 </r>
       <r>   -11.2761     0.0000    36.0000 </r>
       <r>   -11.1949     0.0000    36.0000 </r>
       <r>   -11.1138     0.0000    36.0000 </r>
       <r>   -11.0326     0.0000    36.0000 </r>
       <r>   -10.9514     0.0000    36.0000 </r>
       <r>   -10.8702     0.0000    36.0000 </r>
       <r>   -10.7890     0.0000    36.0000 </r>
       <r>   -10.7078     0.0000    36.0000 </r>
       <r>   -10.6267     0.0000    36.0000 </r>
       <r>   -10.5455     0.0000    36.0000 </r>
       <r>   -10.4643     0.0000    36.0000 </r>
       <r>   -10.3831     0.0000    36.0000 </r>
       <r>   -10.3019     0.0000    36.0000 </r>
       <r>   -10.2207     0.0000    36.0000 </r>
       <r>   -10.1396     0.0000    36.0000 </r>
       <r>   -10.0584     0.0000    36.0000 </r>
       <r>    -9.9772     0.0000    36.0000 </r>
       <r>    -9.8960     0.0000    36.0000 </r>
       <r>    -9.8148     0.0000    36.0000 </r>
       <r>    -9.7336     0.0000    36.0000 </r>
       <r>    -9.6525     0.0000    36.0000 </r>
       <r>    -9.5713     0.0000    36.0000 </r>
       <r>    -9.4901     0.0000    36.0000 </r>
       <r>    -9.4089     0.0000    36.0000 </r>
       <r>    -9.3277     0.0000    36.0000 </r>
       <r>    -9.2465     0.0000    36.0000 </r>
       <r>    -9.1654     0.0000    36.0000 </r>
       <r>    -9.0842     0.0000    36.0000 </r>
       <r>    -9.0030     0.0000    36.0000 </r>
       <r>    -8.9218     0.0000    36.0000 </r>
       <r>    -8.8406     0.0000    36.0000 </r>
       <r>    -8.7594     0.0000    36.0000 </r>
       <r>    -8.6783     0.0000    36.0000 </r>
       <r>    -8.5971     0.0000    36.0000 </r>
       <r>    -8.5159     0.0000    36.0000 </r>
       <r>    -8.4347     0.0000    36.0000 </r>
       <r>    -8.3535     0.0000    36.0000 </r>
       <r>    -8.2723     0.0000    36.0000 </r>
       <r>    -8.1912     0.0000    36.0000 </r>
       <r>    -8.1100     0.0000    36.0000 </r>
       <r>    -8.0288     0.0000    36.0000 </r>
       <r>    -7.9476     0.0000    36.0000 </r>
       <r>    -7.8664     0.0000    36.0000 </r>
       <r>    -7.7852     0.0000    36.0000 </r>
       <r>    -7.7041     0.0000    36.0000 </r>
       <r>    -7.6229     0.0000    36.0000 </r>
       <r>    -7.5417     0.0000    36.0000 </r>
       <r>    -7.4605     0.0000    36.0000 </r>
       <r>    -7.3793     0.0000    36.0000 </r>
       <r>    -7.2981     0.0000    36.0000 </r>
       <r>    -7.2170     0.0000    36.0000 </r>
       <r>    -7.1358     0.0000    36.0000 </r>
       <r>    -7.0546     0.0000    36.0000 </r>
       <r>    -6.9734     0.0000    36.0000 </r>
       <r>    -6.8922     0.0000    36.0000 </r>
       <r>    -6.8111     0.0000    36.0000 </r>
       <r>    -6.7299     0.0000    36.0000 </r>
       <r>    -6.6487     0.0000    36.0000 </r>
       <r>    -6.5675     0.0000    36.0000 </r>
       <r>    -6.4863     0.0000    36.0000 </r>
       <r>    -6.4051     0.0000    36.0000 </r>
       <r>    -6.3240     0.0000    36.0000 </r>
       <r>    -6.2428     0.0000    36.0000 </r>
       <r>    -6.1616     0.0000    36.0000 </r>
       <r>    -6.0804     0.0000    36.0000 </r>
       <r>    -5.9992     0.0000    36.0000 </r>
       <r>    -5.9180     0.0000    36.0000 </r>
       <r>    -5.8369     0.0000    36.0000 </r>
       <r>    -5.7557     0.0000    36.0000 </r>
       <r>    -5.6745     0.0000    36.0000 </r>
       <r>    -5.5933     0.0000    36.0000 </r>
       <r>    -5.5121     0.0000    36.0000 </r>
       <r>    -5.4309     0.0000    36.0000 </r>
       <r>    -5.3498     0.0000    36.0000 </r>
       <r>    -5.2686     0.0000    36.0000 </r>
       <r>    -5.1874     0.0000    36.0000 </r>
       <r>    -5.1062     0.0000    36.0000 </r>
       <r>    -5.0250     0.0000    36.0000 </r>
       <r>    -4.9438     0.0000    36.0000 </r>
       <r>    -4.8627     0.0000    36.0000 </r>
       <r>    -4.7815     0.0000    36.0000 </r>
       <r>    -4.7003     0.0000    36.0000 </r>
       <r>    -4.6191     0.0000    36.0000 </r>
       <r>    -4.5379     0.0000    36.0000 </r>
       <r>    -4.4567     0.0000    36.0000 </r>
       <r>    -4.3756     0.0000    36.0000 </r>
       <r>    -4.2944     0.0000    36.0000 </r>
       <r>    -4.2132     0.0000    36.0000 </r>
       <r>    -4.1320     0.0000    36.0000 </r>
       <r>    -4.0508     0.0000    36.0000 </r>
       <r>    -3.9696     0.0000    36.0000 </r>
       <r>    -3.8885     0.0000    36.0000 </r>
       <r>    -3.8073     0.0000    36.0000 </r>
       <r>    -3.7261     0.0000    36.0000 </r>
       <r>    -3.6449     0.0000    36.0000 </r>
       <r>    -3.5637     0.0000    36.0000 </r>
       <r>    -3.4825     0.0000    36.0000 </r>
       <r>    -3.4014     0.0000    36.0000 </r>
       <r>    -3.3202     0.0000    36.0000 </r>
       <r>    -3.2390     0.0000    36.0000 </r>
       <r>    -3.1578     0.0000    36.0000 </r>
       <r>    -3.0766     0.0000    36.0000 </r>
       <r>    -2.9954     0.0122    36.0010 </r>
       <r>    -2.9143     0.6500    36.0538 </r>
       <r>    -2.8331     3.1171    36.3068 </r>
       <r>    -2.7519     7.7783    36.9383 </r>
       <r>    -2.6707    12.9875    37.9926 </r>
       <r>    -2.5895    18.5940    39.5022 </r>
       <r>    -2.5083    40.2569    42.7704 </r>
       <r>    -2.4272    37.6409    45.8262 </r>
       <r>    -2.3460    26.5467    47.9813 </r>
       <r>    -2.2648    26.0400    50.0953 </r>
       <r>    -2.1836    23.1991    51.9787 </r>
       <r>    -2.1024    22.5922    53.8128 </r>
       <r>    -2.0212    23.5212    55.7223 </r>
       <r>    -1.9401    32.9580    58.3980 </r>
       <r>    -1.8589    36.4864    61.3600 </r>
       <r>    -1.7777    24.4643    63.3461 </r>
       <r>    -1.6965    28.0044    65.6196 </r>
       <r>    -1.6153    30.8769    68.1263 </r>
       <r>    -1.5341    21.5908    69.8791 </r>
       <r>    -1.4530    24.7968    71.8922 </r>
       <r>    -1.3718    29.7370    74.3063 </r>
       <r>    -1.2906    31.1163    76.8325 </r>
       <r>    -1.2094    30.0490    79.2719 </r>
       <r>    -1.1282    40.6033    82.5682 </r>
       <r>    -1.0470    41.4591    85.9340 </r>
       <r>    -0.9659    41.4624    89.3001 </r>
       <r>    -0.8847    27.3152    91.5176 </r>
       <r>    -0.8035    26.2242    93.6466 </r>
       <r>    -0.7223    25.5818    95.7234 </r>
       <r>    -0.6411    22.4058    97.5424 </r>
       <r>    -0.5599    20.9148    99.2403 </r>
       <r>    -0.4788    23.6015   101.1563 </r>
       <r>    -0.3976    18.3671   102.6474 </r>
       <r>    -0.3164    18.2869   104.1320 </r>
       <r>    -0.2352    24.0052   106.0808 </r>
       <r>    -0.1540    16.3692   107.4097 </r>
       <r>    -0.0728    12.9587   108.4618 </r>
       <r>     0.0083    27.5262   110.6964 </r>
       <r>     0.0895    25.0420   112.7294 </r>
       <r>     0.1707    23.9201   114.6713 </r>
       <r>     0.2519    34.6843   117.4871 </r>
       <r>     0.3331    31.1936   120.0195 </r>
       <r>     0.4143    36.4282   122.9769 </r>
       <r>     0.4954    29.1216   125.3410 </r>
       <r>     0.5766    30.0087   127.7772 </r>
       <r>     0.6578    28.4345   130.0856 </r>
       <r>     0.7390    28.5907   132.4067 </r>
       <r>     0.8202    19.8782   134.0205 </r>
       <r>     0.9014    22.0236   135.8085 </r>
       <r>     0.9825    24.9999   137.8380 </r>
       <r>     1.0637    35.3921   140.7113 </r>
       <r>     1.1449    28.3116   143.0097 </r>
       <r>     1.2261     7.9457   143.6548 </r>
       <r>     1.3073     3.5912   143.9463 </r>
       <r>     1.3885     0.6568   143.9996 </r>
       <r>     1.4696     0.0047   144.0000 </r>
       <r>     1.5508     0.0000   144.0000 </r>
       <r>     1.6320     0.0000   144.0000 </r>
       <r>     1.7132     0.0000   144.0000 </r>
       <r>     1.7944     0.0000   144.0000 </r>
       <r>     1.8755     0.0000   144.0000 </r>
       <r>     1.9567     0.0000   144.0000 </r>
       <r>     2.0379     0.0000   144.0000 </r>
       <r>     2.1191     0.0000   144.0000 </r>
       <r>     2.2003     0.0000   144.0000 </r>
       <r>     2.2815     0.0000   144.0000 </r>
       <r>     2.3626     0.0000   144.0000 </r>
       <r>     2.4438     0.0000   144.0000 </r>
       <r>     2.5250     0.0000   144.0000 </r>
       <r>     2.6062     0.0000   144.0000 </r>
       <r>     2.6874     0.0000   144.0000 </r>
       <r>     2.7686     0.0000   144.0000 </r>
       <r>     2.8497     0.0000   144.0000 </r>
       <r>     2.9309     0.0000   144.0000 </r>
       <r>     3.0121     0.0000   144.0000 </r>
       <r>     3.0933     0.0000   144.0000 </r>
       <r>     3.1745     0.0000   144.0000 </r>
       <r>     3.2557     0.0000   144.0000 </r>
       <r>     3.3368     0.0000   144.0000 </r>
       <r>     3.4180     0.0000   144.0000 </r>
       <r>     3.4992     0.0000   144.0000 </r>
       <r>     3.5804     0.0000   144.0000 </r>
       <r>     3.6616     0.0000   144.0000 </r>
       <r>     3.7428     0.0000   144.0000 </r>
       <r>     3.8239     0.0000   144.0000 </r>
       <r>     3.9051     0.0000   144.0000 </r>
       <r>     3.9863     0.0000   144.0000 </r>
       <r>     4.0675     0.0000   144.0000 </r>
       <r>     4.1487     0.0001   144.0000 </r>
       <r>     4.2299     0.1584   144.0129 </r>
       <r>     4.3110     4.1942   144.3534 </r>
       <r>     4.3922    13.6297   145.4599 </r>
       <r>     4.4734    26.5495   147.6152 </r>
       <r>     4.5546    24.5217   149.6060 </r>
       <r>     4.6358    20.6061   151.2789 </r>
       <r>     4.7170    14.4055   152.4483 </r>
       <r>     4.7981    11.0669   153.3468 </r>
       <r>     4.8793     9.8889   154.1496 </r>
       <r>     4.9605     6.5196   154.6789 </r>
       <r>     5.0417     4.1502   155.0158 </r>
       <r>     5.1229     5.5006   155.4624 </r>
       <r>     5.2041     7.1541   156.0432 </r>
       <r>     5.2852    21.1258   157.7582 </r>
       <r>     5.3664    35.1109   160.6086 </r>
       <r>     5.4476    33.0475   163.2915 </r>
       <r>     5.5288    31.4325   165.8433 </r>
       <r>     5.6100    27.9971   168.1162 </r>
       <r>     5.6912    25.7311   170.2052 </r>
       <r>     5.7723    43.8963   173.7688 </r>
       <r>     5.8535    52.4612   178.0278 </r>
       <r>     5.9347    35.3259   180.8956 </r>
       <r>     6.0159    25.4414   182.9610 </r>
       <r>     6.0971    26.6586   185.1253 </r>
       <r>     6.1783    38.2160   188.2278 </r>
       <r>     6.2594    35.7383   191.1291 </r>
       <r>     6.3406    10.3846   191.9722 </r>
       <r>     6.4218     0.3424   192.0000 </r>
       <r>     6.5030     0.0003   192.0000 </r>
       <r>     6.5842     0.0000   192.0000 </r>
       <r>     6.6654     0.0000   192.0000 </r>
       <r>     6.7465     0.0000   192.0000 </r>
       <r>     6.8277     0.0000   192.0000 </r>
       <r>     6.9089     0.0000   192.0000 </r>
       <r>     6.9901     0.0000   192.0000 </r>
       <r>     7.0713     0.0000   192.0000 </r>
       <r>     7.1525     0.0000   192.0000 </r>
       <r>     7.2336     0.0000   192.0000 </r>
       <r>     7.3148     0.0000   192.0000 </r>
       <r>     7.3960     0.0000   192.0000 </r>
      </set>
     </set>
    </array>
   </total>
  </dos>
 </calculation>
 <structure name="finalpos" >
  <crystal>
   <varray name="basis" >
    <v>       2.55341532      -4.42264507       0.00000000 </v>
    <v>       2.55341532       4.42264507       0.00000000 </v>
    <v>       0.00000000       0.00000000      13.77700915 </v>
   </varray>
   <i name="volume">    311.16338672 </i>
   <varray name="rec_basis" >
    <v>       0.19581617      -0.11305452       0.00000000 </v>
    <v>       0.19581617       0.11305452       0.00000000 </v>
    <v>       0.00000000       0.00000000       0.07258469 </v>
   </varray>
  </crystal>
  <varray name="positions" >
   <v>       0.33333333       0.66666667       0.01247640 </v>
   <v>      -0.00000000      -0.00000000       0.15419027 </v>
   <v>       0.33333333       0.66666667       0.32085694 </v>
   <v>       0.66666667       0.33333333       0.17914306 </v>
   <v>      -0.00000000      -0.00000000       0.34580973 </v>
   <v>       0.66666667       0.33333333       0.48752360 </v>
   <v>      -0.00000000      -0.00000000       0.65419027 </v>
   <v>       0.33333333       0.66666667       0.51247640 </v>
   <v>       0.66666667       0.33333333       0.67914306 </v>
   <v>       0.33333333       0.66666667       0.82085694 </v>
   <v>       0.66666667       0.33333333       0.98752360 </v>
   <v>      -0.00000000      -0.00000000       0.84580973 </v>
   <v>       0.31267990      -0.00000000       0.25000000 </v>
   <v>       0.00000000       0.31267990       0.25000000 </v>
   <v>       0.68732010       0.68732010       0.25000000 </v>
   <v>       0.35398677       0.33333333       0.08333333 </v>
   <v>       0.66666667       0.02065343       0.08333333 </v>
   <v>       0.97934657       0.64601323       0.08333333 </v>
   <v>       0.97934657       0.33333333       0.58333333 </v>
   <v>       0.66666667       0.64601323       0.58333333 </v>
   <v>       0.35398677       0.02065343       0.58333333 </v>
   <v>       0.02065343       0.66666667       0.41666667 </v>
   <v>       0.33333333       0.35398677       0.41666667 </v>
   <v>       0.64601323       0.97934657       0.41666667 </v>
   <v>       0.64601323       0.66666667       0.91666667 </v>
   <v>       0.33333333       0.97934657       0.91666667 </v>
   <v>       0.02065343       0.35398677       0.91666667 </v>
   <v>       0.68732010       0.00000000       0.75000000 </v>
   <v>      -0.00000000       0.68732010       0.75000000 </v>
   <v>       0.31267990       0.31267990       0.75000000 </v>
  </varray>
 </structure>
</modeling>
