unknown system                          
           1
     2.553415   -4.422645    0.000000
     2.553415    4.422645    0.000000
     0.000000    0.000000   13.777009
   Ti   O 
  12  18
Direct configuration=     1
   0.33333333  0.66666667  0.01120414
   0.00000000  0.00000000  0.15546253
   0.33333333  0.66666667  0.32212920
   0.66666667  0.33333333  0.17787080
   0.00000000  0.00000000  0.34453747
   0.66666667  0.33333333  0.48879586
   0.00000000  0.00000000  0.65546253
   0.33333333  0.66666667  0.51120414
   0.66666667  0.33333333  0.67787080
   0.33333333  0.66666667  0.82212920
   0.66666667  0.33333333  0.98879586
   0.00000000  0.00000000  0.84453747
   0.31439446  0.00000000  0.25000000
   0.00000000  0.31439446  0.25000000
   0.68560554  0.68560554  0.25000000
   0.35227221  0.33333333  0.08333333
   0.66666667  0.01893887  0.08333333
   0.98106113  0.64772779  0.08333333
   0.98106113  0.33333333  0.58333333
   0.66666667  0.64772779  0.58333333
   0.35227221  0.01893887  0.58333333
   0.01893887  0.66666667  0.41666667
   0.33333333  0.35227221  0.41666667
   0.64772779  0.98106113  0.41666667
   0.64772779  0.66666667  0.91666667
   0.33333333  0.98106113  0.91666667
   0.01893887  0.35227221  0.91666667
   0.68560554  0.00000000  0.75000000
   0.00000000  0.68560554  0.75000000
   0.31439446  0.31439446  0.75000000
Direct configuration=     2
   0.33333333  0.66666667  0.01177706
  -0.00000000  0.00000000  0.15488960
   0.33333333  0.66666667  0.32155627
   0.66666667  0.33333333  0.17844373
  -0.00000000  0.00000000  0.34511040
   0.66666667  0.33333333  0.48822294
  -0.00000000  0.00000000  0.65488960
   0.33333333  0.66666667  0.51177706
   0.66666667  0.33333333  0.67844373
   0.33333333  0.66666667  0.82155627
   0.66666667  0.33333333  0.98822294
  -0.00000000  0.00000000  0.84511040
   0.31416812 -0.00000000  0.25000000
   0.00000000  0.31416812  0.25000000
   0.68583188  0.68583188  0.25000000
   0.35249855  0.33333333  0.08333333
   0.66666667  0.01916521  0.08333333
   0.98083479  0.64750145  0.08333333
   0.98083479  0.33333333  0.58333333
   0.66666667  0.64750145  0.58333333
   0.35249855  0.01916521  0.58333333
   0.01916521  0.66666667  0.41666667
   0.33333333  0.35249855  0.41666667
   0.64750145  0.98083479  0.41666667
   0.64750145  0.66666667  0.91666667
   0.33333333  0.98083479  0.91666667
   0.01916521  0.35249855  0.91666667
   0.68583188  0.00000000  0.75000000
  -0.00000000  0.68583188  0.75000000
   0.31416812  0.31416812  0.75000000
Direct configuration=     3
   0.33333333  0.66666667  0.01229769
  -0.00000000  0.00000000  0.15436898
   0.33333333  0.66666667  0.32103565
   0.66666667  0.33333333  0.17896435
  -0.00000000  0.00000000  0.34563102
   0.66666667  0.33333333  0.48770231
  -0.00000000  0.00000000  0.65436898
   0.33333333  0.66666667  0.51229769
   0.66666667  0.33333333  0.67896435
   0.33333333  0.66666667  0.82103565
   0.66666667  0.33333333  0.98770231
  -0.00000000  0.00000000  0.84563102
   0.31396245 -0.00000000  0.25000000
   0.00000000  0.31396245  0.25000000
   0.68603755  0.68603755  0.25000000
   0.35270422  0.33333333  0.08333333
   0.66666667  0.01937089  0.08333333
   0.98062911  0.64729578  0.08333333
   0.98062911  0.33333333  0.58333333
   0.66666667  0.64729578  0.58333333
   0.35270422  0.01937089  0.58333333
   0.01937089  0.66666667  0.41666667
   0.33333333  0.35270422  0.41666667
   0.64729578  0.98062911  0.41666667
   0.64729578  0.66666667  0.91666667
   0.33333333  0.98062911  0.91666667
   0.01937089  0.35270422  0.91666667
   0.68603755  0.00000000  0.75000000
  -0.00000000  0.68603755  0.75000000
   0.31396245  0.31396245  0.75000000
Direct configuration=     4
   0.33333333  0.66666667  0.01241401
  -0.00000000 -0.00000000  0.15425266
   0.33333333  0.66666667  0.32091933
   0.66666667  0.33333333  0.17908067
  -0.00000000 -0.00000000  0.34574734
   0.66666667  0.33333333  0.48758599
  -0.00000000 -0.00000000  0.65425266
   0.33333333  0.66666667  0.51241401
   0.66666667  0.33333333  0.67908067
   0.33333333  0.66666667  0.82091933
   0.66666667  0.33333333  0.98758599
  -0.00000000 -0.00000000  0.84574734
   0.31312766 -0.00000000  0.25000000
   0.00000000  0.31312766  0.25000000
   0.68687234  0.68687234  0.25000000
   0.35353901  0.33333333  0.08333333
   0.66666667  0.02020567  0.08333333
   0.97979433  0.64646099  0.08333333
   0.97979433  0.33333333  0.58333333
   0.66666667  0.64646099  0.58333333
   0.35353901  0.02020567  0.58333333
   0.02020567  0.66666667  0.41666667
   0.33333333  0.35353901  0.41666667
   0.64646099  0.97979433  0.41666667
   0.64646099  0.66666667  0.91666667
   0.33333333  0.97979433  0.91666667
   0.02020567  0.35353901  0.91666667
   0.68687234  0.00000000  0.75000000
  -0.00000000  0.68687234  0.75000000
   0.31312766  0.31312766  0.75000000
Direct configuration=     5
   0.33333333  0.66666667  0.01247640
  -0.00000000 -0.00000000  0.15419027
   0.33333333  0.66666667  0.32085694
   0.66666667  0.33333333  0.17914306
  -0.00000000 -0.00000000  0.34580973
   0.66666667  0.33333333  0.48752360
  -0.00000000 -0.00000000  0.65419027
   0.33333333  0.66666667  0.51247640
   0.66666667  0.33333333  0.67914306
   0.33333333  0.66666667  0.82085694
   0.66666667  0.33333333  0.98752360
  -0.00000000 -0.00000000  0.84580973
   0.31267990 -0.00000000  0.25000000
   0.00000000  0.31267990  0.25000000
   0.68732010  0.68732010  0.25000000
   0.35398677  0.33333333  0.08333333
   0.66666667  0.02065343  0.08333333
   0.97934657  0.64601323  0.08333333
   0.97934657  0.33333333  0.58333333
   0.66666667  0.64601323  0.58333333
   0.35398677  0.02065343  0.58333333
   0.02065343  0.66666667  0.41666667
   0.33333333  0.35398677  0.41666667
   0.64601323  0.97934657  0.41666667
   0.64601323  0.66666667  0.91666667
   0.33333333  0.97934657  0.91666667
   0.02065343  0.35398677  0.91666667
   0.68732010  0.00000000  0.75000000
  -0.00000000  0.68732010  0.75000000
   0.31267990  0.31267990  0.75000000
